Titile = 'Poisson'  
VARIABLES = X, Y, U, Error 
zone N= 625, E = 1152
DATAPACKING=POINT, ZONETYPE=FETRIANGLE
0.00000000000000000000e+00  0.00000000000000000000e+00  0.00000000000000000000e+00  0.00000000000000000000e+00
4.16666666666666643537e-02  0.00000000000000000000e+00  0.00000000000000000000e+00  0.00000000000000000000e+00
8.33333333333333287074e-02  0.00000000000000000000e+00  0.00000000000000000000e+00  0.00000000000000000000e+00
1.25000000000000000000e-01  0.00000000000000000000e+00  0.00000000000000000000e+00  0.00000000000000000000e+00
1.66666666666666657415e-01  0.00000000000000000000e+00  0.00000000000000000000e+00  0.00000000000000000000e+00
2.08333333333333342585e-01  0.00000000000000000000e+00  0.00000000000000000000e+00  0.00000000000000000000e+00
2.50000000000000000000e-01  0.00000000000000000000e+00  0.00000000000000000000e+00  0.00000000000000000000e+00
2.91666666666666685170e-01  0.00000000000000000000e+00  0.00000000000000000000e+00  0.00000000000000000000e+00
3.33333333333333314830e-01  0.00000000000000000000e+00  0.00000000000000000000e+00  0.00000000000000000000e+00
3.75000000000000000000e-01  0.00000000000000000000e+00  0.00000000000000000000e+00  0.00000000000000000000e+00
4.16666666666666685170e-01  0.00000000000000000000e+00  0.00000000000000000000e+00  0.00000000000000000000e+00
4.58333333333333314830e-01  0.00000000000000000000e+00  0.00000000000000000000e+00  0.00000000000000000000e+00
5.00000000000000000000e-01  0.00000000000000000000e+00  0.00000000000000000000e+00  0.00000000000000000000e+00
5.41666666666666629659e-01  0.00000000000000000000e+00  0.00000000000000000000e+00  0.00000000000000000000e+00
5.83333333333333370341e-01  0.00000000000000000000e+00  0.00000000000000000000e+00  0.00000000000000000000e+00
6.25000000000000000000e-01  0.00000000000000000000e+00  0.00000000000000000000e+00  0.00000000000000000000e+00
6.66666666666666629659e-01  0.00000000000000000000e+00  0.00000000000000000000e+00  0.00000000000000000000e+00
7.08333333333333370341e-01  0.00000000000000000000e+00  0.00000000000000000000e+00  0.00000000000000000000e+00
7.50000000000000000000e-01  0.00000000000000000000e+00  0.00000000000000000000e+00  0.00000000000000000000e+00
7.91666666666666629659e-01  0.00000000000000000000e+00  0.00000000000000000000e+00  0.00000000000000000000e+00
8.33333333333333370341e-01  0.00000000000000000000e+00  0.00000000000000000000e+00  0.00000000000000000000e+00
8.75000000000000000000e-01  0.00000000000000000000e+00  0.00000000000000000000e+00  0.00000000000000000000e+00
9.16666666666666629659e-01  0.00000000000000000000e+00  0.00000000000000000000e+00  0.00000000000000000000e+00
9.58333333333333370341e-01  0.00000000000000000000e+00  0.00000000000000000000e+00  0.00000000000000000000e+00
1.00000000000000000000e+00  0.00000000000000000000e+00  0.00000000000000000000e+00  0.00000000000000000000e+00
0.00000000000000000000e+00  4.16666666666666643537e-02  0.00000000000000000000e+00  0.00000000000000000000e+00
4.16666666666666643537e-02  4.16666666666666643537e-02  1.70691905973273938546e-02  3.21037418615430225621e-05
8.33333333333333287074e-02  4.16666666666666643537e-02  3.38155602536218680143e-02  3.28958223600461785452e-05
1.25000000000000000000e-01  4.16666666666666643537e-02  4.99661617098644122992e-02  1.59504575495961198328e-05
1.66666666666666657415e-01  4.16666666666666643537e-02  6.52511346709395700927e-02  1.19614390862027297757e-05
2.08333333333333342585e-01  4.16666666666666643537e-02  7.94125149633368582203e-02  4.67963356086953385926e-05
2.50000000000000000000e-01  4.16666666666666643537e-02  9.22101796267050938249e-02  8.57760145521468952978e-05
2.91666666666666685170e-01  4.16666666666666643537e-02  1.03426597774965975396e-01  1.26792818307769339370e-04
3.33333333333333314830e-01  4.16666666666666643537e-02  1.12870859541602461262e-01  1.68138780212948035775e-04
3.75000000000000000000e-01  4.16666666666666643537e-02  1.20382107082174019674e-01  2.08370366565582831875e-04
4.16666666666666685170e-01  4.16666666666666643537e-02  1.25832384192134077994e-01  2.46235880384998440107e-04
4.58333333333333314830e-01  4.16666666666666643537e-02  1.29128888597748098244e-01  2.80633953512271494546e-04
5.00000000000000000000e-01  4.16666666666666643537e-02  1.30215604333298429207e-01  3.10587886753144193364e-04
5.41666666666666629659e-01  4.16666666666666643537e-02  1.29074294976119663403e-01  3.35227575140706335333e-04
5.83333333333333370341e-01  4.16666666666666643537e-02  1.25724846230609144104e-01  3.53773841909932329486e-04
6.25000000000000000000e-01  4.16666666666666643537e-02  1.20224956232070689932e-01  3.65521216668912574121e-04
6.66666666666666629659e-01  4.16666666666666643537e-02  1.12669183101956504878e-01  3.69815219858932175967e-04
7.08333333333333370341e-01  4.16666666666666643537e-02  1.03187371536762176327e-01  3.66019056511568408041e-04
7.50000000000000000000e-01  4.16666666666666643537e-02  9.19424940540543300660e-02  3.53461587202924532036e-04
7.91666666666666629659e-01  4.16666666666666643537e-02  7.91279597830089193033e-02  3.31351515936662011086e-04
8.33333333333333370341e-01  4.16666666666666643537e-02  6.49644696623587897255e-02  2.98626447666983096951e-04
8.75000000000000000000e-01  4.16666666666666643537e-02  4.96965471176577314183e-02  2.53664134657091699943e-04
9.16666666666666629659e-01  4.16666666666666643537e-02  3.35889964883620689706e-02  1.93667942899787559607e-04
9.58333333333333370341e-01  4.16666666666666643537e-02  1.69239034051891744370e-02  1.13183450276672925572e-04
1.00000000000000000000e+00  4.16666666666666643537e-02  0.00000000000000000000e+00  1.59848483507178328332e-17
0.00000000000000000000e+00  8.33333333333333287074e-02  0.00000000000000000000e+00  0.00000000000000000000e+00
4.16666666666666643537e-02  8.33333333333333287074e-02  3.38155602536218749532e-02  3.28958223600531174391e-05
8.33333333333333287074e-02  8.33333333333333287074e-02  6.70112150188978128451e-02  2.39169111171527726256e-05
1.25000000000000000000e-01  8.33333333333333287074e-02  9.90330469340226504649e-02  1.27136072649719489291e-05
1.66666666666666657415e-01  8.33333333333333287074e-02  1.29341923750752596511e-01  6.75988005077454712222e-05
2.08333333333333342585e-01  8.33333333333333287074e-02  1.57424852833823153420e-01  1.34198917459887878678e-04
2.50000000000000000000e-01  8.33333333333333287074e-02  1.82805049555328280597e-01  2.07652336891017696985e-04
2.91666666666666685170e-01  8.33333333333333287074e-02  2.05050826190118135051e-01  2.84127772954556601093e-04
3.33333333333333314830e-01  8.33333333333333287074e-02  2.23783399166065460895e-01  3.60468875947900224688e-04
3.75000000000000000000e-01  8.33333333333333287074e-02  2.38683623856057319790e-01  4.33994538277165942119e-04
4.16666666666666685170e-01  8.33333333333333287074e-02  2.49497617006518235261e-01  5.02382993481736983554e-04
4.58333333333333314830e-01  8.33333333333333287074e-02  2.56041210649298023316e-01  5.63601643272626517955e-04
5.00000000000000000000e-01  8.33333333333333287074e-02  2.58203183573867844913e-01  6.15861528652894563152e-04
5.41666666666666629659e-01  8.33333333333333287074e-02  2.55947228440042140463e-01  6.57583852528564882789e-04
5.83333333333333370341e-01  8.33333333333333287074e-02  2.49312629881594222114e-01  6.87370118405750130108e-04
6.25000000000000000000e-01  8.33333333333333287074e-02  2.38413649210244937837e-01  7.03969184089547894700e-04
6.66666666666666629659e-01  8.33333333333333287074e-02  2.23437633459907580846e-01  7.06234582105835784205e-04
7.08333333333333370341e-01  8.33333333333333287074e-02  2.04641890134200116202e-01  6.93063828872575449225e-04
7.50000000000000000000e-01  8.33333333333333287074e-02  1.82349394502745537627e-01  6.63307389473788422407e-04
7.91666666666666629659e-01  8.33333333333333287074e-02  1.56943425180234547023e-01  6.15626571048549786624e-04
8.33333333333333370341e-01  8.33333333333333287074e-02  1.28861259823115109624e-01  5.48262728145232358656e-04
8.75000000000000000000e-01  8.33333333333333287074e-02  9.85871141412596740938e-02  4.58646400027962197754e-04
9.16666666666666629659e-01  8.33333333333333287074e-02  6.66445878111409095723e-02  3.42710296639833766896e-04
9.58333333333333370341e-01  8.33333333333333287074e-02  3.35889964883620828484e-02  1.93667942899732048456e-04
1.00000000000000000000e+00  8.33333333333333287074e-02  0.00000000000000000000e+00  3.16961915143176494126e-17
0.00000000000000000000e+00  1.25000000000000000000e-01  0.00000000000000000000e+00  0.00000000000000000000e+00
4.16666666666666643537e-02  1.25000000000000000000e-01  4.99661617098643984214e-02  1.59504575495822420450e-05
8.33333333333333287074e-02  1.25000000000000000000e-01  9.90330469340226504649e-02  1.27136072649719489291e-05
1.25000000000000000000e-01  1.25000000000000000000e-01  1.46373438413189338458e-01  7.31709935369029285113e-05
1.66666666666666657415e-01  1.25000000000000000000e-01  1.91186258501059108683e-01  1.55457681485754450890e-04
2.08333333333333342585e-01  1.25000000000000000000e-01  2.32711091822218690828e-01  2.51821322315465279118e-04
2.50000000000000000000e-01  1.25000000000000000000e-01  2.70241967954250705830e-01  3.56082118847744766299e-04
2.91666666666666685170e-01  1.25000000000000000000e-01  3.03140010497867429251e-01  4.63168843091499304876e-04
3.33333333333333314830e-01  1.25000000000000000000e-01  3.30844760633841383779e-01  5.68813401750412062086e-04
3.75000000000000000000e-01  1.25000000000000000000e-01  3.52884034318135808572e-01  6.69356275137977796419e-04
4.16666666666666685170e-01  1.25000000000000000000e-01  3.68882187689151486154e-01  7.61622925234628489477e-04
4.58333333333333314830e-01  1.25000000000000000000e-01  3.78566679026978880618e-01  8.42843524281489120398e-04
5.00000000000000000000e-01  1.25000000000000000000e-01  3.81772834756041679061e-01  9.10597609048102718532e-04
5.41666666666666629659e-01  1.25000000000000000000e-01  3.78446751435001671471e-01  9.62771116258753778538e-04
5.83333333333333370341e-01  1.25000000000000000000e-01  3.68646294043747546620e-01  9.97516570638568023099e-04
6.25000000000000000000e-01  1.25000000000000000000e-01  3.52540181881704994815e-01  1.01320871156879155350e-03
6.66666666666666629659e-01  1.25000000000000000000e-01  3.30405186113220006305e-01  1.00838792237184504685e-03
7.08333333333333370341e-01  1.25000000000000000000e-01  3.02621496874450890413e-01  9.81682466508038142905e-04
7.50000000000000000000e-01  1.25000000000000000000e-01  2.69666352703366030141e-01  9.31697369732475966231e-04
7.91666666666666629659e-01  1.25000000000000000000e-01  2.32106061063377416831e-01  8.56852081156822542596e-04
8.33333333333333370341e-01  1.25000000000000000000e-01  1.90586576254982514866e-01  7.55139927562348267642e-04
8.75000000000000000000e-01  1.25000000000000000000e-01  1.45822839163195105971e-01  6.23770243531163171014e-04
9.16666666666666629659e-01  1.25000000000000000000e-01  9.85871141412597851161e-02  4.58646400027934442178e-04
9.58333333333333370341e-01  1.25000000000000000000e-01  4.96965471176577799906e-02  2.53664134657022311004e-04
1.00000000000000000000e+00  1.25000000000000000000e-01  0.00000000000000000000e+00  4.68652040532629858459e-17
0.00000000000000000000e+00  1.66666666666666657415e-01  0.00000000000000000000e+00  0.00000000000000000000e+00
4.16666666666666643537e-02  1.66666666666666657415e-01  6.52511346709395700927e-02  1.19614390862027297757e-05
8.33333333333333287074e-02  1.66666666666666657415e-01  1.29341923750752568756e-01  6.75988005077732267978e-05
1.25000000000000000000e-01  1.66666666666666657415e-01  1.91186258501059080928e-01  1.55457681485782206465e-04
1.66666666666666657415e-01  1.66666666666666657415e-01  2.49734238190832708026e-01  2.65761809167236462415e-04
2.08333333333333342585e-01  1.66666666666666657415e-01  3.03990407042041776986e-01  3.90307462318495446141e-04
2.50000000000000000000e-01  1.66666666666666657415e-01  3.53031197144878683414e-01  5.22193448394991932560e-04
2.91666666666666685170e-01  1.66666666666666657415e-01  3.96021114895641679343e-01  6.55555249975847686983e-04
3.33333333333333314830e-01  1.66666666666666657415e-01  4.32227347078927570667e-01  7.85354813291672115838e-04
3.75000000000000000000e-01  1.66666666666666657415e-01  4.61032537750321325110e-01  9.07228505321988620835e-04
4.16666666666666685170e-01  1.66666666666666657415e-01  4.81945532243658325555e-01  1.01738090087577504050e-03
4.58333333333333314830e-01  1.66666666666666657415e-01  4.94609920473462083557e-01  1.11251021344305200955e-03
5.00000000000000000000e-01  1.66666666666666657415e-01  4.98810246888112485131e-01  1.18975311188745935809e-03
5.41666666666666629659e-01  1.66666666666666657415e-01  4.94475791682180088049e-01  1.24663900472510302819e-03
5.83333333333333370341e-01  1.66666666666666657415e-01  4.81681867530050156212e-01  1.28104561448394438372e-03
6.25000000000000000000e-01  1.66666666666666657415e-01  4.60648617663337089922e-01  1.29114859230622380792e-03
6.66666666666666629659e-01  1.66666666666666657415e-01  4.31737343867258760444e-01  1.27535802496059336164e-03
7.08333333333333370341e-01  1.66666666666666657415e-01  3.95444436184718139948e-01  1.23223396089938708187e-03
7.50000000000000000000e-01  1.66666666666666657415e-01  3.52393019054961675884e-01  1.16037153831205497312e-03
7.91666666666666629659e-01  1.66666666666666657415e-01  3.03322470357558993115e-01  1.05824414680139033962e-03
8.33333333333333370341e-01  1.66666666666666657415e-01  2.49076008697279638326e-01  9.23991302720306162399e-04
8.75000000000000000000e-01  1.66666666666666657415e-01  1.90586576254982542622e-01  7.55139927562348267642e-04
9.16666666666666629659e-01  1.66666666666666657415e-01  1.28861259823115303913e-01  5.48262728145176847505e-04
9.58333333333333370341e-01  1.66666666666666657415e-01  6.49644696623588729922e-02  2.98626447666885952437e-04
1.00000000000000000000e+00  1.66666666666666657415e-01  0.00000000000000000000e+00  6.12323399573676480327e-17
0.00000000000000000000e+00  2.08333333333333342585e-01  0.00000000000000000000e+00  0.00000000000000000000e+00
4.16666666666666643537e-02  2.08333333333333342585e-01  7.94125149633368304647e-02  4.67963356087230941682e-05
8.33333333333333287074e-02  2.08333333333333342585e-01  1.57424852833823153420e-01  1.34198917459887878678e-04
1.25000000000000000000e-01  2.08333333333333342585e-01  2.32711091822218690828e-01  2.51821322315465279118e-04
1.66666666666666657415e-01  2.08333333333333342585e-01  3.03990407042041610453e-01  3.90307462318661979594e-04
2.08333333333333342585e-01  2.08333333333333342585e-01  3.70049067629943273516e-01  5.41409818796356745452e-04
2.50000000000000000000e-01  2.08333333333333342585e-01  4.29761417028677483732e-01  6.97917548201920645567e-04
2.91666666666666685170e-01  2.08333333333333342585e-01  4.82109378356055606751e-01  8.53534788478549355517e-04
3.33333333333333314830e-01  2.08333333333333342585e-01  5.26200101817757559530e-01  1.00276054791159641155e-03
3.75000000000000000000e-01  2.08333333333333342585e-01  5.61281435576212572869e-01  1.14078886726709516353e-03
4.16666666666666685170e-01  2.08333333333333342585e-01  5.86754954817995111327e-01  1.26343151016738985959e-03
4.58333333333333314830e-01  2.08333333333333342585e-01  6.02186331865654400630e-01  1.36705872761933022730e-03
5.00000000000000000000e-01  2.08333333333333342585e-01  6.07312877399600381523e-01  1.44855160912027436382e-03
5.41666666666666629659e-01  2.08333333333333342585e-01  6.02048131222298832377e-01  1.50525937097500950301e-03
5.83333333333333370341e-01  2.08333333333333342585e-01  5.86483431018406164981e-01  1.53495530975633620585e-03
6.25000000000000000000e-01  2.08333333333333342585e-01  5.60886438943841825200e-01  1.53578549963784283250e-03
6.66666666666666629659e-01  2.08333333333333342585e-01  5.25696657929199617776e-01  1.50620443646964918827e-03
7.08333333333333370341e-01  2.08333333333333342585e-01  4.81518021417652541949e-01  1.44489172688161415792e-03
7.50000000000000000000e-01  2.08333333333333342585e-01  4.29108690793665981111e-01  1.35064378321347877687e-03
7.91666666666666629659e-01  2.08333333333333342585e-01  3.69368242572414462455e-01  1.22223487632533434066e-03
8.33333333333333370341e-01  2.08333333333333342585e-01  3.03322470357558771070e-01  1.05824414680150136192e-03
8.75000000000000000000e-01  2.08333333333333342585e-01  2.32106061063377305809e-01  8.56852081156878053747e-04
9.16666666666666629659e-01  2.08333333333333342585e-01  1.56943425180234824579e-01  6.15626571048383253171e-04
9.58333333333333370341e-01  2.08333333333333342585e-01  7.91279597830089054256e-02  3.31351515936634255510e-04
1.00000000000000000000e+00  2.08333333333333342585e-01  0.00000000000000000000e+00  7.45517735479898425620e-17
0.00000000000000000000e+00  2.50000000000000000000e-01  0.00000000000000000000e+00  0.00000000000000000000e+00
4.16666666666666643537e-02  2.50000000000000000000e-01  9.22101796267050105582e-02  8.57760145522301620247e-05
8.33333333333333287074e-02  2.50000000000000000000e-01  1.82805049555328308353e-01  2.07652336890989941409e-04
1.25000000000000000000e-01  2.50000000000000000000e-01  2.70241967954250816852e-01  3.56082118847633743997e-04
1.66666666666666657415e-01  2.50000000000000000000e-01  3.53031197144878683414e-01  5.22193448394991932560e-04
2.08333333333333342585e-01  2.50000000000000000000e-01  4.29761417028677483732e-01  6.97917548201920645567e-04
2.50000000000000000000e-01  2.50000000000000000000e-01  4.99123987895410237137e-01  8.76012104589651841025e-04
2.91666666666666685170e-01  2.50000000000000000000e-01  5.59935497122711733908e-01  1.05002967421918835811e-03
3.33333333333333314830e-01  2.50000000000000000000e-01  6.11158169445012555698e-01  1.21426625078191463558e-03
3.75000000000000000000e-01  2.50000000000000000000e-01  6.51917773800096411740e-01  1.36370863809176512405e-03
4.16666666666666685170e-01  2.50000000000000000000e-01  6.81518714093977462376e-01  1.49398779824183591813e-03
4.58333333333333314830e-01  2.50000000000000000000e-01  6.99456045826653993736e-01  1.60133882332380572677e-03
5.00000000000000000000e-01  2.50000000000000000000e-01  7.05424216199841414010e-01  1.68256498670604770496e-03
5.41666666666666629659e-01  2.50000000000000000000e-01  6.99322382653306928724e-01  1.73500199667098176093e-03
5.83333333333333370341e-01  2.50000000000000000000e-01  6.81256223740321464888e-01  1.75647815189783340628e-03
6.25000000000000000000e-01  2.50000000000000000000e-01  6.51536216369603460308e-01  1.74526606858471655670e-03
6.66666666666666629659e-01  2.50000000000000000000e-01  6.10672413902563326893e-01  1.70002179323125446331e-03
7.08333333333333370341e-01  2.50000000000000000000e-01  5.59365819366228422815e-01  1.61970743070249945106e-03
7.50000000000000000000e-01  2.50000000000000000000e-01  4.98496505880814455569e-01  1.50349411918554443091e-03
7.91666666666666629659e-01  2.50000000000000000000e-01  4.29108690793666314178e-01  1.35064378321320122112e-03
8.33333333333333370341e-01  2.50000000000000000000e-01  3.52393019054961731396e-01  1.16037153831194395082e-03
8.75000000000000000000e-01  2.50000000000000000000e-01  2.69666352703365586052e-01  9.31697369732920055441e-04
9.16666666666666629659e-01  2.50000000000000000000e-01  1.82349394502745815183e-01  6.63307389473677400105e-04
9.58333333333333370341e-01  2.50000000000000000000e-01  9.19424940540546214995e-02  3.53461587202605342917e-04
1.00000000000000000000e+00  2.50000000000000000000e-01  0.00000000000000000000e+00  8.65956056235493162558e-17
0.00000000000000000000e+00  2.91666666666666685170e-01  0.00000000000000000000e+00  0.00000000000000000000e+00
4.16666666666666643537e-02  2.91666666666666685170e-01  1.03426597774965975396e-01  1.26792818307769339370e-04
8.33333333333333287074e-02  2.91666666666666685170e-01  2.05050826190118190562e-01  2.84127772954501089941e-04
1.25000000000000000000e-01  2.91666666666666685170e-01  3.03140010497867540273e-01  4.63168843091388282573e-04
1.66666666666666657415e-01  2.91666666666666685170e-01  3.96021114895641679343e-01  6.55555249975847686983e-04
2.08333333333333342585e-01  2.91666666666666685170e-01  4.82109378356055662262e-01  8.53534788478493844366e-04
2.50000000000000000000e-01  2.91666666666666685170e-01  5.59935497122712066975e-01  1.05002967421885529120e-03
2.91666666666666685170e-01  2.91666666666666685170e-01  6.28170865395965893896e-01  1.23865715529447584231e-03
3.33333333333333314830e-01  2.91666666666666685170e-01  6.85650421579522384441e-01  1.41372528992766977041e-03
3.75000000000000000000e-01  2.91666666666666685170e-01  7.31392695562235184426e-01  1.57021758229891617020e-03
4.16666666666666685170e-01  2.91666666666666685170e-01  7.64616707111281934672e-01  1.70377364872176251254e-03
4.58333333333333314830e-01  2.91666666666666685170e-01  7.84755424101613585641e-01  1.81066838387944351041e-03
5.00000000000000000000e-01  2.91666666666666685170e-01  7.91465551080359763780e-01  1.88778921087540130230e-03
5.41666666666666629659e-01  2.91666666666666685170e-01  7.84633483044413715390e-01  1.93260944107942478354e-03
5.83333333333333370341e-01  2.91666666666666685170e-01  7.64377325701977805572e-01  1.94315505802589161277e-03
6.25000000000000000000e-01  2.91666666666666685170e-01  7.31044951099586004517e-01  1.91796204494809607866e-03
6.66666666666666629659e-01  2.91666666666666685170e-01  6.85208125332161355203e-01  1.85602153728892105278e-03
7.08333333333333370341e-01  2.91666666666666685170e-01  6.27652811954126810257e-01  1.75671059713355948162e-03
7.50000000000000000000e-01  2.91666666666666685170e-01  5.59365819366228644860e-01  1.61970743070238842876e-03
7.91666666666666629659e-01  2.91666666666666685170e-01  4.81518021417653097060e-01  1.44489172688122557986e-03
8.33333333333333370341e-01  2.91666666666666685170e-01  3.95444436184717806881e-01  1.23223396089972014877e-03
8.75000000000000000000e-01  2.91666666666666685170e-01  3.02621496874450945924e-01  9.81682466508038142905e-04
9.16666666666666629659e-01  2.91666666666666685170e-01  2.04641890134200449269e-01  6.93063828872436671347e-04
9.58333333333333370341e-01  2.91666666666666685170e-01  1.03187371536762523272e-01  3.66019056511207585558e-04
1.00000000000000000000e+00  2.91666666666666685170e-01  0.00000000000000000000e+00  9.71577628780522024780e-17
0.00000000000000000000e+00  3.33333333333333314830e-01  0.00000000000000000000e+00  0.00000000000000000000e+00
4.16666666666666643537e-02  3.33333333333333314830e-01  1.12870859541602447385e-01  1.68138780212961913563e-04
8.33333333333333287074e-02  3.33333333333333314830e-01  2.23783399166065544161e-01  3.60468875947816957961e-04
1.25000000000000000000e-01  3.33333333333333314830e-01  3.30844760633841328268e-01  5.68813401750467573237e-04
1.66666666666666657415e-01  3.33333333333333314830e-01  4.32227347078927848223e-01  7.85354813291394560082e-04
2.08333333333333342585e-01  3.33333333333333314830e-01  5.26200101817757559530e-01  1.00276054791159641155e-03
2.50000000000000000000e-01  3.33333333333333314830e-01  6.11158169445012888765e-01  1.21426625078158156867e-03
2.91666666666666685170e-01  3.33333333333333314830e-01  6.85650421579522162396e-01  1.41372528992789181501e-03
3.33333333333333314830e-01  3.33333333333333314830e-01  7.48404364808346822535e-01  1.59563519165306644254e-03
3.75000000000000000000e-01  3.33333333333333314830e-01  7.98347995596872306301e-01  1.75514959439315720857e-03
4.16666666666666685170e-01  3.33333333333333314830e-01  8.34628222611301429090e-01  1.88808112650640236296e-03
4.58333333333333314830e-01  3.33333333333333314830e-01  8.56625538673739805873e-01  1.99089772752103488784e-03
5.00000000000000000000e-01  3.33333333333333314830e-01  8.63964690946186775200e-01  2.06071283825182138827e-03
5.41666666666666629659e-01  3.33333333333333314830e-01  8.56521167820278761518e-01  2.09526858098219026516e-03
5.83333333333333370341e-01  3.33333333333333314830e-01  8.34423393362248799754e-01  2.09291037555903169931e-03
6.25000000000000000000e-01  3.33333333333333314830e-01  7.98050593958371079495e-01  2.05255123289438401457e-03
6.66666666666666629659e-01  3.33333333333333314830e-01  7.48026375855991632058e-01  1.97362414400847896445e-03
7.08333333333333370341e-01  3.33333333333333314830e-01  6.85208125332161133159e-01  1.85602153728892105278e-03
7.50000000000000000000e-01  3.33333333333333314830e-01  6.10672413902563215871e-01  1.70002179323136548561e-03
7.91666666666666629659e-01  3.33333333333333314830e-01  5.25696657929199617776e-01  1.50620443646976021057e-03
8.33333333333333370341e-01  3.33333333333333314830e-01  4.31737343867258538399e-01  1.27535802496070438394e-03
8.75000000000000000000e-01  3.33333333333333314830e-01  3.30405186113220394883e-01  1.00838792237145646880e-03
9.16666666666666629659e-01  3.33333333333333314830e-01  2.23437633459907469824e-01  7.06234582106113339961e-04
9.58333333333333370341e-01  3.33333333333333314830e-01  1.12669183101956921211e-01  3.69815219858460331182e-04
1.00000000000000000000e+00  3.33333333333333314830e-01  0.00000000000000000000e+00  1.06057523872490679157e-16
0.00000000000000000000e+00  3.75000000000000000000e-01  0.00000000000000000000e+00  0.00000000000000000000e+00
4.16666666666666643537e-02  3.75000000000000000000e-01  1.20382107082174005797e-01  2.08370366565596709663e-04
8.33333333333333287074e-02  3.75000000000000000000e-01  2.38683623856057541834e-01  4.33994538276943897515e-04
1.25000000000000000000e-01  3.75000000000000000000e-01  3.52884034318136030617e-01  6.69356275137755751814e-04
1.66666666666666657415e-01  3.75000000000000000000e-01  4.61032537750321380621e-01  9.07228505321933109684e-04
2.08333333333333342585e-01  3.75000000000000000000e-01  5.61281435576212461847e-01  1.14078886726720618583e-03
2.50000000000000000000e-01  3.75000000000000000000e-01  6.51917773800096633785e-01  1.36370863809154307944e-03
2.91666666666666685170e-01  3.75000000000000000000e-01  7.31392695562235073403e-01  1.57021758229902719251e-03
3.33333333333333314830e-01  3.75000000000000000000e-01  7.98347995596872084256e-01  1.75514959439337925318e-03
3.75000000000000000000e-01  3.75000000000000000000e-01  8.51639416746023947269e-01  1.91397384724978358861e-03
4.16666666666666685170e-01  3.75000000000000000000e-01  8.90356286007608743738e-01  2.04281482491408539204e-03
4.58333333333333314830e-01  3.75000000000000000000e-01  9.13837151976003458920e-01  2.13846306074993997015e-03
5.00000000000000000000e-01  3.75000000000000000000e-01  9.21681155413659247699e-01  2.19837709762749078379e-03
5.41666666666666629659e-01  3.75000000000000000000e-01  9.13754938743892464181e-01  2.22067629286104573083e-03
5.83333333333333370341e-01  3.75000000000000000000e-01  8.90194977228394579427e-01  2.20412360412824970268e-03
6.25000000000000000000e-01  3.75000000000000000000e-01  8.51405293230042770070e-01  2.14809736323096078792e-03
6.66666666666666629659e-01  3.75000000000000000000e-01  7.98050593958370746428e-01  2.05255123289493912608e-03
7.08333333333333370341e-01  3.75000000000000000000e-01  7.31044951099586337584e-01  1.91796204494776301175e-03
7.50000000000000000000e-01  3.75000000000000000000e-01  6.51536216369603682352e-01  1.74526606858460553440e-03
7.91666666666666629659e-01  3.75000000000000000000e-01  5.60886438943841936222e-01  1.53578549963795385480e-03
8.33333333333333370341e-01  3.75000000000000000000e-01  4.60648617663337422989e-01  1.29114859230589074102e-03
8.75000000000000000000e-01  3.75000000000000000000e-01  3.52540181881704661748e-01  1.01320871156918013156e-03
9.16666666666666629659e-01  3.75000000000000000000e-01  2.38413649210245298660e-01  7.03969184089464627974e-04
9.58333333333333370341e-01  3.75000000000000000000e-01  1.20224956232071245044e-01  3.65521216668329707034e-04
1.00000000000000000000e+00  3.75000000000000000000e-01  0.00000000000000000000e+00  1.13142611228770026067e-16
0.00000000000000000000e+00  4.16666666666666685170e-01  0.00000000000000000000e+00  0.00000000000000000000e+00
4.16666666666666643537e-02  4.16666666666666685170e-01  1.25832384192134216772e-01  2.46235880384859662229e-04
8.33333333333333287074e-02  4.16666666666666685170e-01  2.49497617006518374039e-01  5.02382993481598205676e-04
1.25000000000000000000e-01  4.16666666666666685170e-01  3.68882187689151874732e-01  7.61622925234239911418e-04
1.66666666666666657415e-01  4.16666666666666685170e-01  4.81945532243658603111e-01  1.01738090087549748475e-03
2.08333333333333342585e-01  4.16666666666666685170e-01  5.86754954817995111327e-01  1.26343151016738985959e-03
2.50000000000000000000e-01  4.16666666666666685170e-01  6.81518714093977018287e-01  1.49398779824228000734e-03
2.91666666666666685170e-01  4.16666666666666685170e-01  7.64616707111282045695e-01  1.70377364872165149023e-03
3.33333333333333314830e-01  4.16666666666666685170e-01  8.34628222611301096023e-01  1.88808112650673542987e-03
3.75000000000000000000e-01  4.16666666666666685170e-01  8.90356286007608632715e-01  2.04281482491419641434e-03
4.16666666666666685170e-01  4.16666666666666685170e-01  9.30848177053665848391e-01  2.16452483855356092590e-03
4.58333333333333314830e-01  4.16666666666666685170e-01  9.55411767671011658010e-01  2.25042927153695782039e-03
5.00000000000000000000e-01  4.16666666666666685170e-01  9.63627399773708925856e-01  2.29842651535938635732e-03
5.41666666666666629659e-01  4.16666666666666685170e-01  9.55355099898289816807e-01  2.30709704425891004576e-03
5.83333333333333370341e-01  4.16666666666666685170e-01  9.30737007668746674227e-01  2.27569422347273508933e-03
6.25000000000000000000e-01  4.16666666666666685170e-01  8.90194977228395023516e-01  2.20412360412780561347e-03
6.66666666666666629659e-01  4.16666666666666685170e-01  8.34423393362248244642e-01  2.09291037555980885543e-03
7.08333333333333370341e-01  4.16666666666666685170e-01  7.64377325701977361483e-01  1.94315505802633570198e-03
7.50000000000000000000e-01  4.16666666666666685170e-01  6.81256223740321797955e-01  1.75647815189761136168e-03