Titile = 'Poisson'  
VARIABLES = X, Y, U, Error 
zone N= 36, E = 50
DATAPACKING=POINT, ZONETYPE=FETRIANGLE
0.00000000000000000000e+00  0.00000000000000000000e+00  0.00000000000000000000e+00  0.00000000000000000000e+00
2.00000000000000011102e-01  0.00000000000000000000e+00  0.00000000000000000000e+00  0.00000000000000000000e+00
4.00000000000000022204e-01  0.00000000000000000000e+00  0.00000000000000000000e+00  0.00000000000000000000e+00
5.99999999999999977796e-01  0.00000000000000000000e+00  0.00000000000000000000e+00  0.00000000000000000000e+00
8.00000000000000044409e-01  0.00000000000000000000e+00  0.00000000000000000000e+00  0.00000000000000000000e+00
1.00000000000000000000e+00  0.00000000000000000000e+00  0.00000000000000000000e+00  0.00000000000000000000e+00
0.00000000000000000000e+00  2.00000000000000011102e-01  0.00000000000000000000e+00  0.00000000000000000000e+00
2.00000000000000011102e-01  2.00000000000000011102e-01  3.33736912215976233576e-01  1.17545905965500407930e-02
4.00000000000000022204e-01  2.00000000000000011102e-01  5.31877062356350571726e-01  2.71399320185968795371e-02
5.99999999999999977796e-01  2.00000000000000011102e-01  5.25044982033233798013e-01  3.39720123417136532495e-02
8.00000000000000044409e-01  2.00000000000000011102e-01  3.19476834675811949271e-01  2.60146681367144361197e-02
1.00000000000000000000e+00  2.00000000000000011102e-01  0.00000000000000000000e+00  7.19829327805996632341e-17
0.00000000000000000000e+00  4.00000000000000022204e-01  0.00000000000000000000e+00  0.00000000000000000000e+00
2.00000000000000011102e-01  4.00000000000000022204e-01  5.31877062356350571726e-01  2.71399320185968795371e-02
4.00000000000000022204e-01  4.00000000000000022204e-01  8.56733950271690303246e-01  4.77745469157833113627e-02
5.99999999999999977796e-01  4.00000000000000022204e-01  8.53401841009682415873e-01  5.11066561777913097586e-02
8.00000000000000044409e-01  4.00000000000000022204e-01  5.25044982033233575969e-01  3.39720123417139863164e-02
1.00000000000000000000e+00  4.00000000000000022204e-01  0.00000000000000000000e+00  1.16470831848909234536e-16
0.00000000000000000000e+00  5.99999999999999977796e-01  0.00000000000000000000e+00  0.00000000000000000000e+00
2.00000000000000011102e-01  5.99999999999999977796e-01  5.25044982033233686991e-01  3.39720123417137642718e-02
4.00000000000000022204e-01  5.99999999999999977796e-01  8.53401841009682415873e-01  5.11066561777913097586e-02
5.99999999999999977796e-01  5.99999999999999977796e-01  8.56733950271690525291e-01  4.77745469157833113627e-02
8.00000000000000044409e-01  5.99999999999999977796e-01  5.31877062356350571726e-01  2.71399320185969905594e-02
1.00000000000000000000e+00  5.99999999999999977796e-01  0.00000000000000000000e+00  1.16470831848909259188e-16
0.00000000000000000000e+00  8.00000000000000044409e-01  0.00000000000000000000e+00  0.00000000000000000000e+00
2.00000000000000011102e-01  8.00000000000000044409e-01  3.19476834675811893760e-01  2.60146681367144916308e-02
4.00000000000000022204e-01  8.00000000000000044409e-01  5.25044982033233464946e-01  3.39720123417140973388e-02
5.99999999999999977796e-01  8.00000000000000044409e-01  5.31877062356350571726e-01  2.71399320185969905594e-02
8.00000000000000044409e-01  8.00000000000000044409e-01  3.33736912215976011531e-01  1.17545905965504293711e-02
1.00000000000000000000e+00  8.00000000000000044409e-01  0.00000000000000000000e+00  7.19829327805996755601e-17
0.00000000000000000000e+00  1.00000000000000000000e+00  0.00000000000000000000e+00  0.00000000000000000000e+00
2.00000000000000011102e-01  1.00000000000000000000e+00  0.00000000000000000000e+00  7.19829327805996632341e-17
4.00000000000000022204e-01  1.00000000000000000000e+00  0.00000000000000000000e+00  1.16470831848909234536e-16
5.99999999999999977796e-01  1.00000000000000000000e+00  0.00000000000000000000e+00  1.16470831848909259188e-16
8.00000000000000044409e-01  1.00000000000000000000e+00  0.00000000000000000000e+00  7.19829327805996755601e-17
1.00000000000000000000e+00  1.00000000000000000000e+00  0.00000000000000000000e+00  1.49975978266185760784e-32
1  2  8
2  3  9
3  4  10
4  5  11
5  6  12
7  8  14
8  9  15
9  10  16
10  11  17
11  12  18
13  14  20
14  15  21
15  16  22
16  17  23
17  18  24
19  20  26
20  21  27
21  22  28
22  23  29
23  24  30
25  26  32
26  27  33
27  28  34
28  29  35
29  30  36
1  8  7
2  9  8
3  10  9
4  11  10
5  12  11
7  14  13
8  15  14
9  16  15
10  17  16
11  18  17
13  20  19
14  21  20
15  22  21
16  23  22
17  24  23
19  26  25
20  27  26
21  28  27
22  29  28
23  30  29
25  32  31
26  33  32
27  34  33
28  35  34
29  36  35