Titile = 'Poisson'  
VARIABLES = X, Y, U, Error 
zone N= 25, E = 32
DATAPACKING=POINT, ZONETYPE=FETRIANGLE
0.00000000000000000000e+00  0.00000000000000000000e+00  0.00000000000000000000e+00  0.00000000000000000000e+00
2.50000000000000000000e-01  0.00000000000000000000e+00  0.00000000000000000000e+00  0.00000000000000000000e+00
5.00000000000000000000e-01  0.00000000000000000000e+00  0.00000000000000000000e+00  0.00000000000000000000e+00
7.50000000000000000000e-01  0.00000000000000000000e+00  0.00000000000000000000e+00  0.00000000000000000000e+00
1.00000000000000000000e+00  0.00000000000000000000e+00  0.00000000000000000000e+00  0.00000000000000000000e+00
0.00000000000000000000e+00  2.50000000000000000000e-01  0.00000000000000000000e+00  0.00000000000000000000e+00
2.50000000000000000000e-01  2.50000000000000000000e-01  4.67234628064198409536e-01  3.27653719358014794416e-02
5.00000000000000000000e-01  2.50000000000000000000e-01  6.46824050824407081883e-01  6.02827303621403798317e-02
7.50000000000000000000e-01  2.50000000000000000000e-01  4.47512717080782329582e-01  5.24872829192176704183e-02
1.00000000000000000000e+00  2.50000000000000000000e-01  0.00000000000000000000e+00  8.65956056235493162558e-17
0.00000000000000000000e+00  5.00000000000000000000e-01  0.00000000000000000000e+00  0.00000000000000000000e+00
2.50000000000000000000e-01  5.00000000000000000000e-01  6.46824050824407192906e-01  6.02827303621402688094e-02
5.00000000000000000000e-01  5.00000000000000000000e-01  9.14747345144980794629e-01  8.52526548550192053710e-02
7.50000000000000000000e-01  5.00000000000000000000e-01  6.46824050824407192906e-01  6.02827303621403798317e-02
1.00000000000000000000e+00  5.00000000000000000000e-01  0.00000000000000000000e+00  1.22464679914735320717e-16
0.00000000000000000000e+00  7.50000000000000000000e-01  0.00000000000000000000e+00  0.00000000000000000000e+00
2.50000000000000000000e-01  7.50000000000000000000e-01  4.47512717080782329582e-01  5.24872829192176704183e-02
5.00000000000000000000e-01  7.50000000000000000000e-01  6.46824050824407192906e-01  6.02827303621403798317e-02
7.50000000000000000000e-01  7.50000000000000000000e-01  4.67234628064198409536e-01  3.27653719358017014862e-02
1.00000000000000000000e+00  7.50000000000000000000e-01  0.00000000000000000000e+00  8.65956056235493409077e-17
0.00000000000000000000e+00  1.00000000000000000000e+00  0.00000000000000000000e+00  0.00000000000000000000e+00
2.50000000000000000000e-01  1.00000000000000000000e+00  0.00000000000000000000e+00  8.65956056235493162558e-17
5.00000000000000000000e-01  1.00000000000000000000e+00  0.00000000000000000000e+00  1.22464679914735320717e-16
7.50000000000000000000e-01  1.00000000000000000000e+00  0.00000000000000000000e+00  8.65956056235493409077e-17
1.00000000000000000000e+00  1.00000000000000000000e+00  0.00000000000000000000e+00  1.49975978266185760784e-32
1  2  7
1  7  6
2  3  8
2  8  7
3  4  9
3  9  8
4  5  10
4  10  9
6  7  12
6  12  11
7  8  13
7  13  12
8  9  14
8  14  13
9  10  15
9  15  14
11  12  17
11  17  16
12  13  18
12  18  17
13  14  19
13  19  18
14  15  20
14  20  19
16  17  22
16  22  21
17  18  23
17  23  22
18  19  24
18  24  23
19  20  25
19  25  24