Titile = 'Poisson'  
VARIABLES = X, Y, U, Error, Rank 
zone N= 1771, E = 3200
DATAPACKING=POINT, ZONETYPE=FETRIANGLE
0.00000000000000000000e+00  8.75000000000000000000e-01  0.00000000000000000000e+00  0.00000000000000000000e+00 14
6.25000000000000034694e-03  8.75000000000000000000e-01  7.51254862878089450795e-03  9.40192052931339283806e-07 14
1.25000000000000006939e-02  8.75000000000000000000e-01  1.50222302924451576317e-02  1.85075625626536510726e-06 14
1.87499999999999993061e-02  8.75000000000000000000e-01  2.25261486333588091535e-02  2.73257396947446107305e-06 14
2.50000000000000013878e-02  8.75000000000000000000e-01  3.00214095369208643083e-02  3.58651647200045053943e-06 14
3.12500000000000000000e-02  8.75000000000000000000e-01  3.75051222516229049164e-02  4.41344030402412990099e-06 14
3.74999999999999986122e-02  8.75000000000000000000e-01  4.49744005073907590631e-02  5.21418303434106888972e-06 14
4.37499999999999972244e-02  8.75000000000000000000e-01  5.24263636316833064877e-02  5.98955955068841694455e-06 14
5.00000000000000027756e-02  8.75000000000000000000e-01  5.98581376628581074417e-02  6.74035893410279696170e-06 14
5.62500000000000013878e-02  8.75000000000000000000e-01  6.72668564603479124386e-02  7.46734194505271897668e-06 14
6.25000000000000000000e-02  8.75000000000000000000e-01  7.46496628112264110078e-02  8.17123911621420173645e-06 14
6.87500000000000055511e-02  8.75000000000000000000e-01  8.20037095327561110780e-02  8.85274943294989125064e-06 14
7.49999999999999972244e-02  8.75000000000000000000e-01  8.93261605705506361863e-02  9.51253954453723515883e-06 14
8.12500000000000027756e-02  8.75000000000000000000e-01  9.66141920919781904686e-02  1.01512434568934439838e-05 14
8.74999999999999944489e-02  8.75000000000000000000e-01  1.03864993574452224578e-01  1.07694626384907676808e-05 14
9.37500000000000000000e-02  8.75000000000000000000e-01  1.11075768888256376510e-01  1.13677664736050454408e-05 14
1.00000000000000005551e-01  8.75000000000000000000e-01  1.18243737373551496828e-01  1.19466929970474255995e-05 14
1.06249999999999997224e-01  8.75000000000000000000e-01  1.25366134911205712177e-01  1.25067498538689036991e-05 14
1.12500000000000002776e-01  8.75000000000000000000e-01  1.32440214987092491628e-01  1.30484154262366924826e-05 14
1.18749999999999994449e-01  8.75000000000000000000e-01  1.39463249749493978236e-01  1.35721400790766999478e-05 14
1.25000000000000000000e-01  8.75000000000000000000e-01  1.46432531059233012050e-01  1.40783474932848484684e-05 14
1.31250000000000005551e-01  8.75000000000000000000e-01  1.53345371532178170737e-01  1.45674360363667876328e-05 14
1.37500000000000011102e-01  8.75000000000000000000e-01  1.60199105573731348517e-01  1.50397801593205038273e-05 14
1.43749999999999988898e-01  8.75000000000000000000e-01  1.66991090404925962565e-01  1.54957317911597058924e-05 14
1.49999999999999994449e-01  8.75000000000000000000e-01  1.73718707079764195234e-01  1.59356217080131035146e-05 14
1.56250000000000000000e-01  8.75000000000000000000e-01  1.80379361493399920091e-01  1.63597608758281332086e-05 14
1.62500000000000005551e-01  8.75000000000000000000e-01  1.86970485380799245068e-01  1.67684417469449176252e-05 14
1.68750000000000011102e-01  8.75000000000000000000e-01  1.93489537305493647379e-01  1.71619395093192128599e-05 14
1.74999999999999988898e-01  8.75000000000000000000e-01  1.99934003638048918283e-01  1.75405132834260957253e-05 14
1.81249999999999994449e-01  8.75000000000000000000e-01  2.06301399523878936648e-01  1.79044072607936755048e-05 14
1.87500000000000000000e-01  8.75000000000000000000e-01  2.12589269840025518743e-01  1.82538517886354778597e-05 14
1.93750000000000005551e-01  8.75000000000000000000e-01  2.18795190140543216462e-01  1.85890643929487175967e-05 14
2.00000000000000011102e-01  8.75000000000000000000e-01  2.24916767590114030639e-01  1.89102507499039340644e-05 14
2.06249999999999988898e-01  8.75000000000000000000e-01  2.30951641885532132914e-01  1.92176056055537447520e-05 14
2.12499999999999994449e-01  8.75000000000000000000e-01  2.36897486164720144641e-01  1.95113136260971486990e-05 14
2.18750000000000000000e-01  8.75000000000000000000e-01  2.42752007902882316337e-01  1.97915502233581008795e-05 14
2.25000000000000005551e-01  8.75000000000000000000e-01  2.48512949795496318472e-01  2.00584823071559004148e-05 14
2.31250000000000011102e-01  8.75000000000000000000e-01  2.54178090627764030618e-01  2.03122690040080655649e-05 14
2.37499999999999988898e-01  8.75000000000000000000e-01  2.59745246130188123246e-01  2.05530623399452494482e-05 14
2.43749999999999994449e-01  8.75000000000000000000e-01  2.65212269819976143026e-01  2.07810078552417287767e-05 14
2.50000000000000000000e-01  8.75000000000000000000e-01  2.70577053827887770154e-01  2.09962452107914643307e-05 14
2.56249999999999977796e-01  8.75000000000000000000e-01  2.75837529710247497672e-01  2.11989087456898595008e-05 14
2.62500000000000011102e-01  8.75000000000000000000e-01  2.80991669245802988542e-01  2.13891279912670206897e-05 14
2.68749999999999988898e-01  8.75000000000000000000e-01  2.86037485217092823930e-01  2.15670281711877187547e-05 14
2.75000000000000022204e-01  8.75000000000000000000e-01  2.90973032176052637254e-01  2.17327306576975409769e-05 14
2.81250000000000000000e-01  8.75000000000000000000e-01  2.95796407193543886560e-01  2.18863534025559580698e-05 14
2.87499999999999977796e-01  8.75000000000000000000e-01  3.00505750592504394803e-01  2.20280113570892055463e-05 14
2.93750000000000011102e-01  8.75000000000000000000e-01  3.05099246664478518376e-01  2.21578168385083706937e-05 14
2.99999999999999988898e-01  8.75000000000000000000e-01  3.09575124369201037933e-01  2.22758798924527212648e-05 14
3.06250000000000022204e-01  8.75000000000000000000e-01  3.13931658016975034808e-01  2.23823086429875139913e-05 14
3.12500000000000000000e-01  8.75000000000000000000e-01  3.18167167933602834662e-01  2.24772096057423986792e-05 14
3.18749999999999977796e-01  8.75000000000000000000e-01  3.22280021107602676622e-01  2.25606879769024715188e-05 14
3.25000000000000011102e-01  8.75000000000000000000e-01  3.26268631819421284224e-01  2.26328479370763169243e-05 14
3.31249999999999988898e-01  8.75000000000000000000e-01  3.30131462252481522324e-01  2.26937928881065786868e-05 14
3.37500000000000022204e-01  8.75000000000000000000e-01  3.33867023085722136599e-01  2.27436257315694057013e-05 14
3.43750000000000000000e-01  8.75000000000000000000e-01  3.37473874067498846863e-01  2.27824490894312781109e-05 14
3.49999999999999977796e-01  8.75000000000000000000e-01  3.40950624570555915760e-01  2.28103655371403313268e-05 14
3.56250000000000011102e-01  8.75000000000000000000e-01  3.44295934127895719712e-01  2.28274778082959706182e-05 14
3.62499999999999988898e-01  8.75000000000000000000e-01  3.47508512949322279084e-01  2.28338889862733651626e-05 14
3.68750000000000022204e-01  8.75000000000000000000e-01  3.50587122418438645877e-01  2.28297027067281277368e-05 14
3.75000000000000000000e-01  8.75000000000000000000e-01  3.53530575569950045178e-01  2.28150233237967015043e-05 14
3.81249999999999977796e-01  8.75000000000000000000e-01  3.56337737547037736174e-01  2.27899560944488932535e-05 14
3.87500000000000011102e-01  8.75000000000000000000e-01  3.59007526038690294445e-01  2.27546073149897942756e-05 14
3.93749999999999988898e-01  8.75000000000000000000e-01  3.61538911696746290136e-01  2.27090844891475462930e-05 14
4.00000000000000022204e-01  8.75000000000000000000e-01  3.63930918532555269795e-01  2.26534964591351695162e-05 14
4.06250000000000000000e-01  8.75000000000000000000e-01  3.66182624293052094711e-01  2.25879535510897788697e-05 14
4.12499999999999977796e-01  8.75000000000000000000e-01  3.68293160816131448509e-01  2.25125677044690775119e-05 14
4.18750000000000011102e-01  8.75000000000000000000e-01  3.70261714365186067610e-01  2.24274525837397931127e-05 14
4.24999999999999988898e-01  8.75000000000000000000e-01  3.72087525942649433031e-01  2.23327237026671454601e-05 14
4.31250000000000022204e-01  8.75000000000000000000e-01  3.73769891582455771051e-01  2.22284985277876323551e-05 14
4.37500000000000000000e-01  8.75000000000000000000e-01  3.75308162621268315284e-01  2.21148965970363597933e-05 14
4.43749999999999977796e-01  8.75000000000000000000e-01  3.76701745948418875720e-01  2.19920396067330159440e-05 14
4.50000000000000011102e-01  8.75000000000000000000e-01  3.77950104234410499959e-01  2.18600515167755027335e-05 14
4.56249999999999988898e-01  8.75000000000000000000e-01  3.79052756137939594883e-01  2.17190586317972389452e-05 14
4.62500000000000022204e-01  8.75000000000000000000e-01  3.80009276491312608659e-01  2.15691897020864331580e-05 14
4.68750000000000000000e-01  8.75000000000000000000e-01  3.80819296464224021914e-01  2.14105760060756544760e-05 14
4.74999999999999977796e-01  8.75000000000000000000e-01  3.81482503705825093387e-01  2.12433514221177510706e-05 14
4.81250000000000011102e-01  8.75000000000000000000e-01  3.81998642464995985524e-01  2.10676525219666288535e-05 14
4.87499999999999988898e-01  8.75000000000000000000e-01  3.82367513688836424546e-01  2.08836186242344901132e-05 14
4.93750000000000022204e-01  8.75000000000000000000e-01  3.82588975099251715761e-01  2.06913918937012830668e-05 14
5.00000000000000000000e-01  8.75000000000000000000e-01  3.82662941247690124857e-01  2.04911173997679441072e-05 14
5.06249999999999977796e-01  8.75000000000000000000e-01  3.82589383547954464682e-01  2.02829431909523627553e-05 14
5.12499999999999955591e-01  8.75000000000000000000e-01  3.82368330287095048448e-01  2.00670203656105883283e-05 14
5.18750000000000044409e-01  8.75000000000000000000e-01  3.81999866614403549292e-01  1.98435031144028606320e-05 14
5.25000000000000022204e-01  8.75000000000000000000e-01  3.81484134508420280607e-01  1.96125488269305314759e-05 14
5.31250000000000000000e-01  8.75000000000000000000e-01  3.80821332722099614720e-01  1.93743181305383593838e-05 14
5.37499999999999977796e-01  8.75000000000000000000e-01  3.80011716706042113056e-01  1.91289749725820357185e-05 14
5.43749999999999955591e-01  8.75000000000000000000e-01  3.79055598509905777860e-01  1.88766866656142617842e-05 14
5.50000000000000044409e-01  8.75000000000000000000e-01  3.77953346661951850027e-01  1.86176239753699235280e-05 14
5.56250000000000022204e-01  8.75000000000000000000e-01  3.76705386026873090266e-01  1.83519611525184700440e-05 14
5.62500000000000000000e-01  8.75000000000000000000e-01  3.75312197641815892268e-01  1.80798760494593757642e-05 14
5.68749999999999977796e-01  8.75000000000000000000e-01  3.73774318530820326423e-01  1.78015501632322603598e-05 14
5.74999999999999955591e-01  8.75000000000000000000e-01  3.72092341497659129246e-01  1.75171686930264414173e-05 14
5.81250000000000044409e-01  8.75000000000000000000e-01  3.70266914897153576192e-01  1.72269206162312116248e-05 14
5.87500000000000022204e-01  8.75000000000000000000e-01  3.68298742385052058079e-01  1.69309987838595077392e-05 14
5.93750000000000000000e-01  8.75000000000000000000e-01  3.66188582646619575911e-01  1.66295999836085783841e-05 14
5.99999999999999977796e-01  8.75000000000000000000e-01  3.63937249104004767464e-01  1.63229250096930122993e-05 14
6.06249999999999955591e-01  8.75000000000000000000e-01  3.61545609602479167677e-01  1.60111787563255170141e-05 14
6.12500000000000044409e-01  8.75000000000000000000e-01  3.59014586075701080947e-01  1.56945703041477813144e-05 14
6.18750000000000022204e-01  8.75000000000000000000e-01  3.56345154190121249371e-01  1.53733130109356963544e-05 14
6.25000000000000000000e-01  8.75000000000000000000e-01  3.53538342968664265342e-01  1.50476246095765375799e-05 14
6.31249999999999977796e-01  8.75000000000000000000e-01  3.50595234393862753564e-01  1.47177272826204408318e-05 14
6.37499999999999955591e-01  8.75000000000000000000e-01  3.47516962990509770126e-01  1.43838477988933455265e-05 14
6.43750000000000044409e-01  8.75000000000000000000e-01  3.44304715388071558291e-01  1.40462176324018805929e-05 14
6.50000000000000022204e-01  8.75000000000000000000e-01  3.40959729863041460796e-01  1.37050730516508068035e-05 14
6.56250000000000000000e-01  8.75000000000000000000e-01  3.37483295861339849253e-01  1.33606552484288876315e-05 14
6.62499999999999977796e-01  8.75000000000000000000e-01  3.33876753500952527798e-01  1.30132105012892296259e-05 14
6.68749999999999955591e-01  8.75000000000000000000e-01  3.30141493055076118424e-01  1.26629902935659899299e-05 14
6.75000000000000044409e-01  8.75000000000000000000e-01  3.26278954415872790573e-01  1.23102514856254785514e-05 14
6.81250000000000022204e-01  8.75000000000000000000e-01  3.22290626539131319639e-01  1.19552564483149659225e-05 14
6.87500000000000000000e-01  8.75000000000000000000e-01  3.18178046869926400841e-01  1.15982732822872414147e-05 14
6.93749999999999977796e-01  8.75000000000000000000e-01  3.13942800749665018589e-01  1.12395759530037331331e-05 14
6.99999999999999955591e-01  8.75000000000000000000e-01  3.09586520804560838549e-01  1.08794445326521049822e-05 14
7.06250000000000044409e-01  8.75000000000000000000e-01  3.05110886315905716071e-01  1.05181654113106759496e-05 14
7.12500000000000022204e-01  8.75000000000000000000e-01  3.00517622572362974598e-01  1.01560314985094102269e-05 14
7.18750000000000000000e-01  8.75000000000000000000e-01  2.95808500204440494308e-01  9.79334250600372158146e-06 14
7.24999999999999977796e-01  8.75000000000000000000e-01  2.90985334501535242158e-01  9.43040517509263764850e-06 14
7.31249999999999955591e-01  8.75000000000000000000e-01  2.86049984711660931769e-01  9.06753360324641377588e-06 14
7.37500000000000044409e-01  8.75000000000000000000e-01  2.81004353324278643989e-01  8.70504951555606254487e-06 14
7.43750000000000022204e-01  8.75000000000000000000e-01  2.75850385336378511880e-01  8.34328261473116228331e-06 14
7.50000000000000000000e-01  8.75000000000000000000e-01  2.70590067502169573377e-01  7.98257092904375298303e-06 14
7.56249999999999977796e-01  8.75000000000000000000e-01  2.65225427566651350553e-01  7.62326118003420205582e-06 14
7.62499999999999955591e-01  8.75000000000000000000e-01  2.59758533483327114233e-01  7.26570920112079576825e-06 14
7.68750000000000044409e-01  8.75000000000000000000e-01  2.54191492616392455961e-01  6.91028037552721130510e-06 14
7.75000000000000022204e-01  8.75000000000000000000e-01  2.48526450927702202698e-01  6.55735010129943063362e-06 14
7.81250000000000000000e-01  8.75000000000000000000e-01  2.42765592148795172900e-01  6.20730431050153796946e-06 14
7.87499999999999977796e-01  8.75000000000000000000e-01  2.36911136938370125993e-01  5.86053997619906397176e-06 14
7.93749999999999955591e-01  8.75000000000000000000e-01  2.30965342025410608207e-01  5.51746572710620775126e-06 14
8.00000000000000044409e-01  8.75000000000000000000e-01  2.24930499338384132235e-01  5.17850247985784939431e-06 14
8.06250000000000022204e-01  8.75000000000000000000e-01  2.18808935120882258607e-01  4.84408405390657215150e-06 14
8.12500000000000000000e-01  8.75000000000000000000e-01  2.12603009033858675325e-01  4.51465795547889570116e-06 14
8.18749999999999977796e-01  8.75000000000000000000e-01  2.06315113245056164226e-01  4.19068608364936423527e-06 14
8.24999999999999955591e-01  8.75000000000000000000e-01  1.99947671505752599952e-01  3.87264557977218260021e-06 14
8.31250000000000044409e-01  8.75000000000000000000e-01  1.93503138215302822323e-01  3.56102970014426922774e-06 14
8.37500000000000022204e-01  8.75000000000000000000e-01  1.86983997473844004711e-01  3.25634870218527439079e-06 14
8.43750000000000000000e-01  8.75000000000000000000e-01  1.80392762123393585183e-01  2.95913088224630804746e-06 14
8.49999999999999977796e-01  8.75000000000000000000e-01  1.73731972777917270667e-01  2.66992355496542543847e-06 14
8.56249999999999955591e-01  8.75000000000000000000e-01  1.67004196842535979073e-01  2.38929418130973125756e-06 14
8.62500000000000044409e-01  8.75000000000000000000e-01  1.60212027522380534572e-01  2.11783151007893799544e-06 14
8.68750000000000022204e-01  8.75000000000000000000e-01  1.53358082821474839275e-01  1.85614673978151678568e-06 14
8.75000000000000000000e-01  8.75000000000000000000e-01  1.46445004531934624969e-01  1.60487479169968416670e-06 14
8.81249999999999977796e-01  8.75000000000000000000e-01  1.39475457214042114495e-01  1.36467553094044014017e-06 14
8.87499999999999955591e-01  8.75000000000000000000e-01  1.32452127167437122557e-01  1.13623508174454102004e-06 14
8.93750000000000044409e-01  8.75000000000000000000e-01  1.25377721393962304752e-01  9.20267097220817120728e-07 14
9.00000000000000022204e-01  8.75000000000000000000e-01  1.18254966552523682610e-01  7.17514024903276315115e-07 14
9.06250000000000000000e-01  8.75000000000000000000e-01  1.11086607906398154855e-01  5.28748331854456132817e-07 14
9.12499999999999977796e-01  8.75000000000000000000e-01  1.03875408263474952597e-01  3.54773615901526895300e-07 14
9.18749999999999955591e-01  8.75000000000000000000e-01  9.66241469097968708191e-02  1.96425638296360283164e-07 14
9.25000000000000044409e-01  8.75000000000000000000e-01  8.93356185369225674897e-02  5.45731726614429035749e-08 14
9.31250000000000022204e-01  8.75000000000000000000e-01  8.20126321635924332432e-02  6.98814033861516747947e-08 14
9.37500000000000000000e-01  8.75000000000000000000e-01  7.46580100520723016766e-02  1.76001729537689222127e-07 14
9.43749999999999977796e-01  8.75000000000000000000e-01  6.72745866198129205404e-02  2.62817519872116100998e-07 14
9.49999999999999955591e-01  8.75000000000000000000e-01  5.98652073467481754543e-02  3.29324955923582241013e-07 14
9.56250000000000044409e-01  8.75000000000000000000e-01  5.24327276788215529413e-02  3.74487587544158895270e-07 14
9.62500000000000022204e-01  8.75000000000000000000e-01  4.49800119282384378017e-02  3.97237813372364190201e-07 14
9.68750000000000000000e-01  8.75000000000000000000e-01  3.75099321707686172989e-02  3.96478841604985809965e-07 14
9.74999999999999977796e-01  8.75000000000000000000e-01  3.00253671407794339721e-02  3.71087386520640993837e-07 14
9.81249999999999955591e-01  8.75000000000000000000e-01  2.25292011242017899131e-02  3.19916873329356699074e-07 14
9.87500000000000044409e-01  8.75000000000000000000e-01  1.50243228499698303069e-02  2.41801268447208728141e-07 14
9.93750000000000022204e-01  8.75000000000000000000e-01  7.51362438029392828986e-03  1.35559460013971733172e-07 14
1.00000000000000000000e+00  8.75000000000000000000e-01  0.00000000000000000000e+00  4.68652040532629981719e-17 14
0.00000000000000000000e+00  8.81249999999999977796e-01  0.00000000000000000000e+00  0.00000000000000000000e+00 14
6.25000000000000034694e-03  8.81249999999999977796e-01  7.15498797522751486810e-03  9.13730371173218647307e-07 14
1.25000000000000006939e-02  8.81249999999999977796e-01  1.43072470203334106698e-02  1.79765453764239857559e-06 14
1.87499999999999993061e-02  8.81249999999999977796e-01  2.14540185181382077328e-02  2.65271689792873077707e-06 14
2.50000000000000013878e-02  8.81249999999999977796e-01  2.85925459899412509612e-02  3.47985005244924594514e-06 14
3.12500000000000000000e-02  8.81249999999999977796e-01  3.57200761632432486903e-02  4.27996939646180241112e-06 14
3.74999999999999986122e-02  8.81249999999999977796e-01  4.28338600376913514189e-02  5.05396826102483265331e-06 14
4.37499999999999972244e-02  8.81249999999999977796e-01  4.99311539487222039169e-02  5.80271371752871800709e-06 14
5.00000000000000027756e-02  8.81249999999999977796e-01  5.70092206284273095296e-02  6.52704311299157069470e-06 14
5.62500000000000013878e-02  8.81249999999999977796e-01  6.40653302632098048397e-02  7.22776135930747187786e-06 14
6.25000000000000000000e-02  8.81249999999999977796e-01  7.10967615478385883687e-02  7.90563896395368725933e-06 14
6.87500000000000055511e-02  8.81249999999999977796e-01  7.81008027355405282099e-02  8.56141075572525167559e-06 14
7.49999999999999972244e-02  8.81249999999999977796e-01  8.50747526837970641234e-02  9.19577523474102154211e-06 14
8.12500000000000027756e-02  8.81249999999999977796e-01  9.20159218955199087464e-02  9.80939446952600047069e-06 14
8.74999999999999944489e-02  8.81249999999999977796e-01  9.89216335552868392123e-02  1.04028944580419890897e-05 14
9.37500000000000000000e-02  8.81249999999999977796e-01  1.05789224560331449054e-01  1.09768658600600810260e-05 14
1.00000000000000005551e-01  8.81249999999999977796e-01  1.12616046545960898917e-01  1.15318650285578527814e-05 14
1.06249999999999997224e-01  8.81249999999999977796e-01  1.19399466905078827095e-01  1.20684152671579614235e-05 14
1.12500000000000002776e-01  8.81249999999999977796e-01  1.26136869801492274012e-01  1.25870082417489648208e-05 14
1.18749999999999994449e-01  8.81249999999999977796e-01  1.32825657176652761615e-01  1.30881055044607119697e-05 14
1.25000000000000000000e-01  8.81249999999999977796e-01  1.39463249749493783947e-01  1.35721400792432334015e-05 14
1.31250000000000005551e-01  8.81249999999999977796e-01  1.46047088009017833610e-01  1.40395180698582588974e-05 14
1.37500000000000011102e-01  8.81249999999999977796e-01  1.52574633199270420780e-01  1.44906202695915808931e-05 14
1.43749999999999988898e-01  8.81249999999999977796e-01  1.59043368296349435509e-01  1.49258037436539314768e-05 14
1.49999999999999994449e-01  8.81249999999999977796e-01  1.65450798977086782626e-01  1.53454033707811632326e-05 14
1.56250000000000000000e-01  8.81249999999999977796e-01  1.71794454579036165454e-01  1.57497333351519497313e-05 14
1.62500000000000005551e-01  8.81249999999999977796e-01  1.78071889051411830218e-01  1.61390885540235728968e-05 14
1.68750000000000011102e-01  8.81249999999999977796e-01  1.84280681896612480442e-01  1.65137460393649515566e-05 14
1.74999999999999988898e-01  8.81249999999999977796e-01  1.90418439101963821170e-01  1.68739661962624687419e-05 14
1.81249999999999994449e-01  8.81249999999999977796e-01  1.96482794061334758995e-01  1.72199940438599874426e-05 14
1.87500000000000000000e-01  8.81249999999999977796e-01  2.02471408486253973136e-01  1.75520603760692672779e-05 14
1.93750000000000005551e-01  8.81249999999999977796e-01  2.08381973306194762108e-01  1.78703828423998345443e-05 14
2.00000000000000011102e-01  8.81249999999999977796e-01  2.14212209557652910608e-01  1.81751669768581702868e-05 14
2.06249999999999988898e-01  8.81249999999999977796e-01  2.19959869261691115527e-01  1.84666071580963375709e-05 14
2.12499999999999994449e-01  8.81249999999999977796e-01  2.25622736289610131832e-01  1.87448875019757821292e-05 14
2.18750000000000000000e-01  8.81249999999999977796e-01  2.31198627216387508909e-01  1.90101827118038801956e-05 14
2.25000000000000005551e-01  8.81249999999999977796e-01  2.36685392161577051739e-01  1.92626588631228390369e-05 14
2.31250000000000011102e-01  8.81249999999999977796e-01  2.42080915617329694989e-01  1.95024741389826505866e-05 14
2.37499999999999988898e-01  8.81249999999999977796e-01  2.47383117263202279013e-01  1.97297795284379073877e-05 14
2.43749999999999994449e-01  8.81249999999999977796e-01  2.52589952767464209771e-01  1.99447194650925752057e-05 14
2.50000000000000000000e-01  8.81249999999999977796e-01  2.57699414574561136426e-01  2.01474324362793666410e-05 14
2.56249999999999977796e-01  8.81249999999999977796e-01  2.62709532678450596865e-01  2.03380515451101473445e-05 14
2.62500000000000011102e-01  8.81249999999999977796e-01  2.67618375381494355558e-01  2.05167050415511198480e-05 14
2.68749999999999988898e-01  8.81249999999999977796e-01  2.72424050038617526770e-01  2.06835168198860053224e-05 14
2.75000000000000022204e-01  8.81249999999999977796e-01  2.77124703786451598297e-01  2.08386068791810430412e-05 14
2.81250000000000000000e-01  8.81249999999999977796e-01  2.81718524257159153024e-01  2.09820917657088656938e-05 14
2.87499999999999977796e-01  8.81249999999999977796e-01  2.86203740276697149447e-01  2.11140849675217623371e-05 14
2.93750000000000011102e-01  8.81249999999999977796e-01  2.90578622547198406334e-01  2.12346973105792535819e-05 14
2.99999999999999988898e-01  8.81249999999999977796e-01  2.94841484313255408622e-01  2.13440373089124335593e-05 14
3.06250000000000022204e-01  8.81249999999999977796e-01  2.98990682011810615659e-01  2.14422115092927079161e-05 14
3.12500000000000000000e-01  8.81249999999999977796e-01  3.03024615905431615737e-01  2.15293247998182835090e-05 14
3.18749999999999977796e-01  8.81249999999999977796e-01  3.06941730698703729718e-01  2.16054807057886044674e-05 14
3.25000000000000011102e-01  8.81249999999999977796e-01  3.10740516137497813087e-01  2.16707816784733608984e-05 14
3.31249999999999988898e-01  8.81249999999999977796e-01  3.14419507590905200622e-01  2.17253293517960521797e-05 14
3.37500000000000022204e-01  8.81249999999999977796e-01  3.17977286615587551033e-01  2.17692247968526153556e-05 14
3.43750000000000000000e-01  8.81249999999999977796e-01  3.21412481502353464258e-01  2.18025687431233627933e-05 14
3.49999999999999977796e-01  8.81249999999999977796e-01  3.24723767804713792096e-01  2.18254618042368342401e-05 14
3.56250000000000011102e-01  8.81249999999999977796e-01  3.27909868849237451371e-01  2.18380046828614560184e-05 14
3.62499999999999988898e-01  8.81249999999999977796e-01  3.30969556227495409484e-01  2.18402983694354624333e-05 14
3.68750000000000022204e-01  8.81249999999999977796e-01  3.33901650269405936289e-01  2.18324443335138340672e-05 14
3.75000000000000000000e-01  8.81249999999999977796e-01  3.36705020497823526160e-01  2.18145446802542331000e-05 14
3.81249999999999977796e-01  8.81249999999999977796e-01  3.39378586064141674061e-01  2.17867023291629102744e-05 14
3.87500000000000011102e-01  8.81249999999999977796e-01  3.41921316164799926618e-01  2.17490211550930290230e-05 14
3.93749999999999988898e-01  8.81249999999999977796e-01  3.44332230438474329315e-01  2.17016061517805169956e-05 14
4.00000000000000022204e-01  8.81249999999999977796e-01  3.46610399343856068199e-01  2.16445635611850484281e-05 14
4.06250000000000000000e-01  8.81249999999999977796e-01  3.48754944517823850525e-01  2.15780010156541024458e-05 14
4.12499999999999977796e-01  8.81249999999999977796e-01  3.50765039113918319913e-01  2.15020276476685090472e-05 14
4.18750000000000011102e-01  8.81249999999999977796e-01  3.52639908120933820435e-01  2.14167542215148998253e-05 14
4.24999999999999988898e-01  8.81249999999999977796e-01  3.54378828661556566360e-01  2.13222932335388470904e-05 14
4.31250000000000022204e-01  8.81249999999999977796e-01  3.55981130270875911759e-01  2.12187590406531789711e-05 14
4.37500000000000000000e-01  8.81249999999999977796e-01  3.57446195154741352962e-01  2.11062679359996785422e-05 14
4.43749999999999977796e-01  8.81249999999999977796e-01  3.58773458427770919332e-01  2.09849382676319251573e-05 14
4.50000000000000011102e-01  8.81249999999999977796e-01  3.59962408330995520256e-01  2.08548905221705993540e-05 14
4.56249999999999988898e-01  8.81249999999999977796e-01  3.61012586429010962075e-01  2.07162474192279510987e-05 14
4.62500000000000022204e-01  8.81249999999999977796e-01  3.61923587786588563109e-01  2.05691339892344338125e-05 14
4.68750000000000000000e-01  8.81249999999999977796e-01  3.62695061124647111228e-01  2.04136776633667693659e-05 14
4.74999999999999977796e-01  8.81249999999999977796e-01  3.63326708955561294978e-01  2.02500083408829745224e-05 14
4.81250000000000011102e-01  8.81249999999999977796e-01  3.63818287697702524852e-01  2.00782584852121637198e-05 14
4.87499999999999988898e-01  8.81249999999999977796e-01  3.64169607769242398287e-01  1.98985631748027635979e-05 14
4.93750000000000022204e-01  8.81249999999999977796e-01  3.64380533661100070031e-01  1.97110601912742211539e-05 14
5.00000000000000000000e-01  8.81249999999999977796e-01  3.64450983989068888480e-01  1.95158900807568258529e-05 14
5.06249999999999977796e-01  8.81249999999999977796e-01  3.64380931525065510090e-01  1.93131962258341616234e-05 14
5.12499999999999955591e-01  8.81249999999999977796e-01  3.64170403207515591681e-01  1.91031249016093696014e-05 14
5.18750000000000044409e-01  8.81249999999999977796e-01  3.63819480130835593013e-01  1.88858253521440033751e-05 14
5.25000000000000022204e-01  8.81249999999999977796e-01  3.63328297514035947202e-01  1.86614498662307504162e-05 14
5.31250000000000000000e-01  8.81249999999999977796e-01  3.62697044648501942810e-01  1.84301538085906990716e-05 14
5.37499999999999977796e-01  8.81249999999999977796e-01  3.61925964824866386316e-01  1.81920957114112269437e-05 14
5.43749999999999955591e-01  8.81249999999999977796e-01  3.61015355239114155150e-01  1.79474373160348754652e-05 14
5.50000000000000044409e-01  8.81249999999999977796e-01  3.59965566877859188821e-01  1.76963436584465227952e-05 14
5.56250000000000022204e-01  8.81249999999999977796e-01  3.58777004382914266323e-01  1.74389831242849346893e-05 14
5.62500000000000000000e-01  8.81249999999999977796e-01  3.57450125895157511113e-01  1.71755275198415269244e-05 14
5.68749999999999977796e-01  8.81249999999999977796e-01  3.55985442877797320094e-01  1.69061521192448438455e-05 14
5.74999999999999955591e-01  8.81249999999999977796e-01  3.54383519919049483349e-01  1.66310357406773690059e-05 14
5.81250000000000044409e-01  8.81249999999999977796e-01  3.52644974514320752590e-01  1.63503608345827444737e-05 14
5.87500000000000022204e-01  8.81249999999999977796e-01  3.50770476828012489623e-01  1.60643135534987990809e-05 14
5.93750000000000000000e-01  8.81249999999999977796e-01  3.48760749435044981048e-01  1.57730837945235791153e-05 14
5.99999999999999977796e-01  8.81249999999999977796e-01  3.46616567042113632446e-01  1.54768653036208014839e-05 14
6.06249999999999955591e-01  8.81249999999999977796e-01  3.44338756188868111430e-01  1.51758557579984021402e-05 14
6.12500000000000044409e-01  8.81249999999999977796e-01  3.41928194929128570489e-01  1.48702568263936463211e-05 14
6.18750000000000022204e-01  8.81249999999999977796e-01  3.39385812492175809041e-01  1.45602742950279306910e-05 14
6.25000000000000000000e-01  8.81249999999999977796e-01  3.36712588924368505516e-01  1.42461181352748766926e-05 14