Titile = 'Poisson'  
VARIABLES = X, Y, U, Error, Rank 
zone N= 3381, E = 6400
DATAPACKING=POINT, ZONETYPE=FETRIANGLE
0.00000000000000000000e+00  1.25000000000000000000e-01  0.00000000000000000000e+00  0.00000000000000000000e+00 1
6.25000000000000034694e-03  1.25000000000000000000e-01  7.53311143627169183673e-03  1.96226154378685915813e-05 1
1.25000000000000006939e-02  1.25000000000000000000e-01  1.50628208286217556144e-02  3.87397799203378218058e-05 1
1.87499999999999993061e-02  1.25000000000000000000e-01  2.25671805731044138044e-02  3.82993657761336592227e-05 1
2.50000000000000013878e-02  1.25000000000000000000e-01  3.00628402398902226655e-02  3.78441864973683150808e-05 1
3.12500000000000000000e-02  1.25000000000000000000e-01  3.75469101094912244276e-02  3.73744175643023202049e-05 1
3.74999999999999986122e-02  1.25000000000000000000e-01  4.50165049305068717955e-02  3.68902400817855413706e-05 1
4.37499999999999972244e-02  1.25000000000000000000e-01  5.24687450319434867119e-02  3.63918407095056850586e-05 1
5.00000000000000027756e-02  1.25000000000000000000e-01  5.99007574333820722035e-02  3.58794115898827814526e-05 1
5.62500000000000013878e-02  1.25000000000000000000e-01  6.73096769525673294110e-02  3.53531502743920089671e-05 1
6.25000000000000000000e-02  1.25000000000000000000e-01  7.46926473099880222639e-02  3.48132596454248099960e-05 1
6.87500000000000055511e-02  1.25000000000000000000e-01  8.20468222300329008689e-02  3.42599478438676552372e-05 1
7.49999999999999972244e-02  1.25000000000000000000e-01  8.93693665382734314662e-02  3.36934281782858002785e-05 1
8.12500000000000027756e-02  1.25000000000000000000e-01  9.66574572544918325656e-02  3.31139190567764085671e-05 1
8.74999999999999944489e-02  1.25000000000000000000e-01  1.03908284680977722192e-01  3.25216438870346014056e-05 1
9.37500000000000000000e-02  1.25000000000000000000e-01  1.11119053485735849729e-01  3.19168310058959292519e-05 1
1.00000000000000005551e-01  1.25000000000000000000e-01  1.18286983780128321375e-01  3.12997135798048775612e-05 1
1.06249999999999997224e-01  1.25000000000000000000e-01  1.25409312190575022994e-01  3.06705295154696688797e-05 1
1.12500000000000002776e-01  1.25000000000000000000e-01  1.32483292923898710036e-01  3.00295213800094717982e-05 1
1.18749999999999994449e-01  1.25000000000000000000e-01  1.39506198825864929924e-01  2.93769362919027443581e-05 1
1.25000000000000000000e-01  1.25000000000000000000e-01  1.46475322432566473774e-01  2.87130258402323867983e-05 1
1.31250000000000005551e-01  1.25000000000000000000e-01  1.53387977014174614609e-01  2.80380459601048404039e-05 1
1.37500000000000011102e-01  1.25000000000000000000e-01  1.60241497610777411387e-01  2.73522568867978765894e-05 1
1.43749999999999988898e-01  1.25000000000000000000e-01  1.67033242059715036909e-01  2.66559229979701495239e-05 1
1.49999999999999994449e-01  1.25000000000000000000e-01  1.73760592014214870771e-01  2.59493127427179448574e-05 1
1.56250000000000000000e-01  1.25000000000000000000e-01  1.80420953952806217835e-01  2.52326985305251216829e-05 1
1.62500000000000005551e-01  1.25000000000000000000e-01  1.87011760179182390251e-01  2.45063566362557772038e-05 1
1.68750000000000011102e-01  1.25000000000000000000e-01  1.93530469812076749703e-01  2.37705670738386221075e-05 1
1.74999999999999988898e-01  1.25000000000000000000e-01  1.99974569764838461250e-01  2.30256135061723821167e-05 1
1.81249999999999994449e-01  1.25000000000000000000e-01  2.06341575714262287500e-01  2.22717831226126872224e-05 1
1.87500000000000000000e-01  1.25000000000000000000e-01  2.12629033058360977781e-01  2.15093665468790717910e-05 1
1.93750000000000005551e-01  1.25000000000000000000e-01  2.18834517862635580254e-01  2.07386576994705862376e-05 1
2.00000000000000011102e-01  1.25000000000000000000e-01  2.24955637794565982412e-01  1.99599537021033501816e-05 1
2.06249999999999988898e-01  1.25000000000000000000e-01  2.30990033045908926823e-01  1.91735547713234311118e-05 1
2.12499999999999994449e-01  1.25000000000000000000e-01  2.36935377242405625919e-01  1.83797640594673961090e-05 1
2.18750000000000000000e-01  1.25000000000000000000e-01  2.42789378340708378312e-01  1.75788876027593854445e-05 1
2.25000000000000005551e-01  1.25000000000000000000e-01  2.48549779511952673161e-01  1.67712341492820549149e-05 1
2.31250000000000011102e-01  1.25000000000000000000e-01  2.54214360011833950814e-01  1.59571150659676419536e-05 1
2.37499999999999988898e-01  1.25000000000000000000e-01  2.59780936036747400752e-01  1.51368442193877683621e-05 1
2.43749999999999994449e-01  1.25000000000000000000e-01  2.65247361565646877501e-01  1.43107378156037690076e-05 1
2.50000000000000000000e-01  1.25000000000000000000e-01  2.70611529187461841151e-01  1.34791143633905541321e-05 1
2.56249999999999977796e-01  1.25000000000000000000e-01  2.75871370913449709406e-01  1.26422944566328965266e-05 1
2.62500000000000011102e-01  1.25000000000000000000e-01  2.81024858974495084230e-01  1.18006007008841784511e-05 1
2.68749999999999988898e-01  1.25000000000000000000e-01  2.86070006602841653276e-01  1.09543575776971380265e-05 1
2.75000000000000022204e-01  1.25000000000000000000e-01  2.91004868798056703927e-01  1.01038913464246427054e-05 1
2.81250000000000000000e-01  1.25000000000000000000e-01  2.95827543076825905111e-01  9.24952987957361472127e-06 1
2.87499999999999977796e-01  1.25000000000000000000e-01  3.00536170206407604599e-01  8.39160254617610235073e-06 1
2.93750000000000011102e-01  1.25000000000000000000e-01  3.05128934921398031754e-01  7.53044008111602991562e-06 1
2.99999999999999988898e-01  1.25000000000000000000e-01  3.09604066623581253292e-01  6.66637448781814967447e-06 1
3.06250000000000022204e-01  1.25000000000000000000e-01  3.13959840064501893853e-01  5.79973888392704139960e-06 1
3.12500000000000000000e-01  1.25000000000000000000e-01  3.18194576010595031601e-01  4.93086738656556278215e-06 1
3.18749999999999977796e-01  1.25000000000000000000e-01  3.22306641890489520286e-01  4.06009490999670319411e-06 1
3.25000000000000011102e-01  1.25000000000000000000e-01  3.26294452424565895043e-01  3.18775720764552517039e-06 1
3.31249999999999988898e-01  1.25000000000000000000e-01  3.30156470235950072478e-01  2.31419058055459814227e-06 1
3.37500000000000022204e-01  1.25000000000000000000e-01  3.33891206443223731437e-01  1.43973177008094310736e-06 1
3.43750000000000000000e-01  1.25000000000000000000e-01  3.37497221234503874676e-01  5.64717915707557693850e-07 1
3.49999999999999977796e-01  1.25000000000000000000e-01  3.40973124422444984205e-01  3.10513648016375043426e-07 1
3.56250000000000011102e-01  1.25000000000000000000e-01  3.44317575980205681230e-01  1.18562549822343044070e-06 1
3.62499999999999988898e-01  1.25000000000000000000e-01  3.47529286558057759482e-01  2.06028025068194509117e-06 1
3.68750000000000022204e-01  1.25000000000000000000e-01  3.50607017980381074906e-01  2.93414076418807567848e-06 1
3.75000000000000000000e-01  1.25000000000000000000e-01  3.53549583723181737316e-01  3.80687009204905280058e-06 1
3.81249999999999977796e-01  1.25000000000000000000e-01  3.56355849371346788956e-01  4.67813178528508899490e-06 1
3.87500000000000011102e-01  1.25000000000000000000e-01  3.59024733056025391331e-01  5.54758997978188617139e-06 1
3.93749999999999988898e-01  1.25000000000000000000e-01  3.61555205871756879521e-01  6.41490947850265058605e-06 1
4.00000000000000022204e-01  1.25000000000000000000e-01  3.63946292273107263604e-01  7.27975590703033859086e-06 1
4.06250000000000000000e-01  1.25000000000000000000e-01  3.66197070450751505089e-01  8.14179585156837859472e-06 1
4.12499999999999977796e-01  1.25000000000000000000e-01  3.68306672686874003730e-01  9.00069696180283429499e-06 1
4.18750000000000011102e-01  1.25000000000000000000e-01  3.70274285689632609575e-01  9.85612813714231705831e-06 1
4.24999999999999988898e-01  1.25000000000000000000e-01  3.72099150906734954525e-01  1.07077596170346289739e-05 1
4.31250000000000022204e-01  1.25000000000000000000e-01  3.73780564817962845936e-01  1.15552630206017248327e-05 1
4.37500000000000000000e-01  1.25000000000000000000e-01  3.75317879206211346688e-01  1.23983116538939341922e-05 1
4.43749999999999977796e-01  1.25000000000000000000e-01  3.76710501407513831396e-01  1.32365805116663182162e-05 1
4.50000000000000011102e-01  1.25000000000000000000e-01  3.77957894539523719946e-01  1.40697464034444941205e-05 1
4.56249999999999988898e-01  1.25000000000000000000e-01  3.79059577708406536534e-01  1.48974881647445656085e-05 1
4.62500000000000022204e-01  1.25000000000000000000e-01  3.80015126194371333224e-01  1.57194866432508462140e-05 1
4.68750000000000000000e-01  1.25000000000000000000e-01  3.80824171615275708369e-01  1.65354249542781772675e-05 1
4.74999999999999977796e-01  1.25000000000000000000e-01  3.81486402068674013144e-01  1.73449885730869723943e-05 1
4.81250000000000011102e-01  1.25000000000000000000e-01  3.82001562252192505831e-01  1.81478653253352995023e-05 1
4.87499999999999988898e-01  1.25000000000000000000e-01  3.82369453561726246882e-01  1.89437457343011317334e-05 1
4.93750000000000022204e-01  1.25000000000000000000e-01  3.82589934168148682048e-01  1.97323229966239743760e-05 1
5.00000000000000000000e-01  1.25000000000000000000e-01  3.82662919071999119147e-01  2.05132930906626320677e-05 1
5.06249999999999977796e-01  1.25000000000000000000e-01  3.82588380136291261735e-01  2.12863548540442870660e-05 1
5.12499999999999955591e-01  1.25000000000000000000e-01  3.82366346097044729202e-01  2.20512104158188115832e-05 1
5.18750000000000044409e-01  1.25000000000000000000e-01  3.81996902552839245892e-01  2.28075646785952379503e-05 1
5.25000000000000022204e-01  1.25000000000000000000e-01  3.81480191930909540154e-01  2.35551263375599617689e-05 1
5.31250000000000000000e-01  1.25000000000000000000e-01  3.80816413433299139069e-01  2.42936069309029889496e-05 1
5.37499999999999977796e-01  1.25000000000000000000e-01  3.80005822959070760358e-01  2.50227219438237113991e-05 1
5.43749999999999955591e-01  1.25000000000000000000e-01  3.79048733006335791806e-01  2.57421902354892928599e-05 1
5.50000000000000044409e-01  1.25000000000000000000e-01  3.77945512551565498960e-01  2.64517343616099687154e-05 1
5.56250000000000022204e-01  1.25000000000000000000e-01  3.76696586907130648303e-01  2.71510808948494108961e-05 1
5.62500000000000000000e-01  1.25000000000000000000e-01  3.75302437557739343443e-01  2.78399601258971785001e-05 1
5.68749999999999977796e-01  1.25000000000000000000e-01  3.73763601974413384177e-01  2.85181065700634839288e-05 1
5.74999999999999955591e-01  1.25000000000000000000e-01  3.72080673407683915066e-01  2.91852586681295989024e-05 1
5.81250000000000044409e-01  1.25000000000000000000e-01  3.70254300658400592461e-01  2.98411593691594312361e-05 1
5.87500000000000022204e-01  1.25000000000000000000e-01  3.68285187828153282030e-01  3.04855556825245344044e-05 1
5.93750000000000000000e-01  1.25000000000000000000e-01  3.66174094047337805868e-01  3.11181992652675987188e-05 1
5.99999999999999977796e-01  1.25000000000000000000e-01  3.63921833182800913420e-01  3.17388462134360338496e-05 1
6.06249999999999955591e-01  1.25000000000000000000e-01  3.61529273524066219192e-01  3.23472571691629795509e-05 1
6.12500000000000044409e-01  1.25000000000000000000e-01  3.58997337448314080000e-01  3.29431976910932178271e-05 1
6.18750000000000022204e-01  1.25000000000000000000e-01  3.56327001065189497009e-01  3.35264379425770364662e-05 1
6.25000000000000000000e-01  1.25000000000000000000e-01  3.53519293840131199058e-01  3.40967531425873104922e-05 1
6.31249999999999977796e-01  1.25000000000000000000e-01  3.50575298197778439935e-01  3.46539233668230473029e-05 1
6.37499999999999955591e-01  1.25000000000000000000e-01  3.47496149104436713451e-01  3.51977338718389987093e-05 1
6.43750000000000044409e-01  1.25000000000000000000e-01  3.44283033630698009908e-01  3.57279750058392409073e-05 1
6.50000000000000022204e-01  1.25000000000000000000e-01  3.40937190493827368964e-01  3.62444422656316156406e-05 1
6.56250000000000000000e-01  1.25000000000000000000e-01  3.37459909579931049972e-01  3.67469366571726574477e-05 1
6.62499999999999977796e-01  1.25000000000000000000e-01  3.33852531447104361462e-01  3.72352643493445434331e-05 1
6.68749999999999955591e-01  1.25000000000000000000e-01  3.30116446808197072649e-01  3.77092371725562536255e-05 1
6.75000000000000044409e-01  1.25000000000000000000e-01  3.26253095995014674724e-01  3.81686723436303054768e-05 1
6.81250000000000022204e-01  1.25000000000000000000e-01  3.22263968402770661914e-01  3.86133928089171796216e-05 1
6.87500000000000000000e-01  1.25000000000000000000e-01  3.18150601916175890249e-01  3.90432270326868113841e-05 1
6.93749999999999977796e-01  1.25000000000000000000e-01  3.13914582316245527327e-01  3.94580093724394842525e-05 1
6.99999999999999955591e-01  1.25000000000000000000e-01  3.09557542669171015248e-01  3.98575799224198945581e-05 1
7.06250000000000044409e-01  1.25000000000000000000e-01  3.05081162696755170405e-01  4.02417845617453195928e-05 1
7.12500000000000022204e-01  1.25000000000000000000e-01  3.00487168128593551408e-01  4.06104752678770886121e-05 1
7.18750000000000000000e-01  1.25000000000000000000e-01  2.95777330037114982719e-01  4.09635098314042878087e-05 1
7.24999999999999977796e-01  1.25000000000000000000e-01  2.90953464154508290029e-01  4.13007522019892547860e-05 1
7.31249999999999955591e-01  1.25000000000000000000e-01  2.86017430172937792143e-01  4.16220723262750169624e-05 1
7.37500000000000044409e-01  1.25000000000000000000e-01  2.80971131027423326465e-01  4.19273463708180749165e-05 1
7.43750000000000022204e-01  1.25000000000000000000e-01  2.75816512162346205717e-01  4.22164566469818147709e-05 1
7.50000000000000000000e-01  1.25000000000000000000e-01  2.70555560781472304033e-01  4.24892916262020747808e-05 1
7.56249999999999977796e-01  1.25000000000000000000e-01  2.65190305081614452476e-01  4.27457462168212565246e-05 1
7.62499999999999955591e-01  1.25000000000000000000e-01  2.59722813471053692869e-01  4.29857214744311377785e-05 1
7.68750000000000044409e-01  1.25000000000000000000e-01  2.54155193771839593708e-01  4.32091249283339529086e-05 1
7.75000000000000022204e-01  1.25000000000000000000e-01  2.48489592407370007976e-01  4.34158704334386413848e-05 1
7.81250000000000000000e-01  1.25000000000000000000e-01  2.42728193574780010122e-01  4.36058783256088045022e-05 1
7.87499999999999977796e-01  1.25000000000000000000e-01  2.36873218403056862158e-01  4.37790752893796319967e-05 1
7.93749999999999955591e-01  1.25000000000000000000e-01  2.30926924096533869868e-01  4.39353946037890352727e-05 1
8.00000000000000044409e-01  1.25000000000000000000e-01  2.24891603064859391115e-01  4.40747760045157033204e-05 1
8.06250000000000022204e-01  1.25000000000000000000e-01  2.18769582039234938842e-01  4.41971657011708263241e-05 1
8.12500000000000000000e-01  1.25000000000000000000e-01  2.12563221175231881199e-01  4.43025165822175104324e-05 1
8.18749999999999977796e-01  1.25000000000000000000e-01  2.06274913143172644592e-01  4.43907879671134875110e-05 1
8.24999999999999955591e-01  1.25000000000000000000e-01  1.99907082205454694757e-01  4.44619458776218667850e-05 1
8.31250000000000044409e-01  1.25000000000000000000e-01  1.93462183282154004393e-01  4.45159628489066871992e-05 1
8.37500000000000022204e-01  1.25000000000000000000e-01  1.86942701004452427327e-01  4.45528180937071471845e-05 1
8.43750000000000000000e-01  1.25000000000000000000e-01  1.80351148756919960059e-01  4.45724973558159209830e-05 1
8.49999999999999977796e-01  1.25000000000000000000e-01  1.73690067708388823364e-01  4.45749930833572172162e-05 1
8.56249999999999955591e-01  1.25000000000000000000e-01  1.66962025832401744774e-01  4.45603043154885192223e-05 1
8.62500000000000044409e-01  1.25000000000000000000e-01  1.60169616917217205732e-01  4.45284366733522674053e-05 1
8.68750000000000022204e-01  1.25000000000000000000e-01  1.53315459565732642444e-01  4.44794024819505917634e-05 1
8.75000000000000000000e-01  1.25000000000000000000e-01  1.46402196186096983377e-01  4.44132206293135212150e-05 1
8.81249999999999977796e-01  1.25000000000000000000e-01  1.39432491972921207557e-01  4.43299166518196230413e-05 1
8.87499999999999955591e-01  1.25000000000000000000e-01  1.32409033879887394480e-01  4.42295226314171063819e-05 1
8.93750000000000044409e-01  1.25000000000000000000e-01  1.25334529583763537586e-01  4.41120772959602280849e-05 1
9.00000000000000022204e-01  1.25000000000000000000e-01  1.18211706440623565140e-01  4.39776259249929912798e-05 1
9.06250000000000000000e-01  1.25000000000000000000e-01  1.11043310434414843613e-01  4.38262203151240647969e-05 1
9.12499999999999977796e-01  1.25000000000000000000e-01  1.03832105118205300642e-01  4.36579188855118482948e-05 1
9.18749999999999955591e-01  1.25000000000000000000e-01  9.65808705489436120084e-02  4.34727864915274153645e-05 1
9.25000000000000044409e-01  1.25000000000000000000e-01  8.92924022155827112890e-02  4.32708945124898880508e-05 1
9.31250000000000022204e-01  1.25000000000000000000e-01  8.19695099614160260781e-02  4.30523207729932577692e-05 1
9.37500000000000000000e-01  1.25000000000000000000e-01  7.46150169007901986618e-02  4.28171495525375700453e-05 1
9.43749999999999977796e-01  1.25000000000000000000e-01  6.72317583307948940519e-02  4.25654714981404946883e-05 1
9.49999999999999955591e-01  1.25000000000000000000e-01  5.98225806381482705376e-02  4.22973836439605177517e-05 1
9.56250000000000044409e-01  1.25000000000000000000e-01  5.23903402018851618860e-02  4.20129893488260797163e-05 1
9.62500000000000022204e-01  1.25000000000000000000e-01  4.49379022921751886122e-02  4.17123982498629475302e-05 1
9.68750000000000000000e-01  1.25000000000000000000e-01  3.74681399657147279347e-02  4.13957262122774394264e-05 1
9.74999999999999977796e-01  1.25000000000000000000e-01  2.99839329580425389965e-02  4.10630953503639262170e-05 1
9.81249999999999955591e-01  1.25000000000000000000e-01  2.24881665734577435023e-02  4.07146338707101151932e-05 1
9.87500000000000044409e-01  1.25000000000000000000e-01  1.49837305725677126522e-02  4.03504761336652417736e-05 1
9.93750000000000022204e-01  1.25000000000000000000e-01  7.49306070202171090044e-03  2.04281188122016829634e-05 1
1.00000000000000000000e+00  1.25000000000000000000e-01  0.00000000000000000000e+00  4.68652040532629858459e-17 1
0.00000000000000000000e+00  1.31250000000000005551e-01  0.00000000000000000000e+00  0.00000000000000000000e+00 1
6.25000000000000034694e-03  1.31250000000000005551e-01  7.88761622856112322444e-03  1.94368854583952532789e-05 1
1.25000000000000006939e-02  1.31250000000000005551e-01  1.57716978899063546560e-02  3.83725366153060687413e-05 1
1.87499999999999993061e-02  1.31250000000000005551e-01  2.36303193161782922049e-02  3.79134491201582601860e-05 1
2.50000000000000013878e-02  1.31250000000000005551e-01  3.14798308045301927782e-02  3.74397452687011411676e-05 1
3.12500000000000000000e-02  1.31250000000000005551e-01  3.93172062188609852673e-02  3.69516076827586248399e-05 1
3.74999999999999986122e-02  1.31250000000000005551e-01  4.71394241017571713481e-02  3.64492245486444654823e-05 1
4.37499999999999972244e-02  1.31250000000000005551e-01  5.49434688393219197722e-02  3.59327895443906086825e-05 1
5.00000000000000027756e-02  1.31250000000000005551e-01  6.27263318237526457111e-02  3.54025017660214436077e-05 1
5.62500000000000013878e-02  1.31250000000000005551e-01  7.04850126132149784608e-02  3.48585656492900186620e-05 1
6.25000000000000000000e-02  1.31250000000000005551e-01  7.82165200885713285395e-02  3.43011908919277352936e-05 1
6.87500000000000055511e-02  1.31250000000000005551e-01  8.59178736065140252753e-02  3.37305923725078615760e-05 1
7.49999999999999972244e-02  1.31250000000000005551e-01  9.35861041486602263095e-02  3.31469900679837170543e-05 1
8.12500000000000027756e-02  1.31250000000000005551e-01  1.01218255466163448153e-01  3.25506089670496434607e-05 1
8.74999999999999944489e-02  1.31250000000000005551e-01  1.08811385219407932845e-01  3.19416789877902118633e-05 1
9.37500000000000000000e-02  1.31250000000000005551e-01  1.16362566112328813528e-01  3.13204348811463306745e-05 1
1.00000000000000005551e-01  1.31250000000000005551e-01  1.23868887020952903044e-01  3.06871161528526892326e-05 1
1.06249999999999997224e-01  1.31250000000000005551e-01  1.31327454115676145463e-01  3.00419669549412127196e-05 1
1.12500000000000002776e-01  1.31250000000000005551e-01  1.38735391976908872813e-01  2.93852360103430410021e-05 1
1.18749999999999994449e-01  1.31250000000000005551e-01  1.46089844703583354724e-01  2.87171764956628550181e-05 1
1.25000000000000000000e-01  1.31250000000000005551e-01  1.53387977014174586854e-01  2.80380459600770848283e-05 1
1.31250000000000005551e-01  1.31250000000000005551e-01  1.60626975339759503481e-01  2.73481062303682076475e-05 1
1.37500000000000011102e-01  1.31250000000000005551e-01  1.67804048908673730800e-01  2.66476232821388769878e-05 1
1.43749999999999988898e-01  1.31250000000000005551e-01  1.74916430822434465497e-01  2.59368671648441129207e-05 1
1.49999999999999994449e-01  1.31250000000000005551e-01  1.81961379122434568911e-01  2.52161118993732280558e-05 1
1.56250000000000000000e-01  1.31250000000000005551e-01  1.88936177846981051553e-01  2.44856353340539012464e-05 1
1.62500000000000005551e-01  1.31250000000000005551e-01  1.95838138078402973496e-01  2.37457190902512493835e-05 1
1.68750000000000011102e-01  1.31250000000000005551e-01  2.02664598979654803079e-01  2.29966484282251304450e-05 1
1.74999999999999988898e-01  1.31250000000000005551e-01  2.09412928820095878280e-01  2.22387121134037801795e-05 1
1.81249999999999994449e-01  1.31250000000000005551e-01  2.16080525990122340740e-01  2.14722023545999007865e-05 1
1.87500000000000000000e-01  1.31250000000000005551e-01  2.22664820004094016204e-01  2.06974146483296372878e-05 1
1.93750000000000005551e-01  1.31250000000000005551e-01  2.29163272491341524217e-01  1.99146477007361433209e-05 1
2.00000000000000011102e-01  1.31250000000000005551e-01  2.35573378174720599043e-01  1.91242032766825165169e-05 1
2.06249999999999988898e-01  1.31250000000000005551e-01  2.41892665836464737517e-01  1.83263861039117958995e-05 1
2.12499999999999994449e-01  1.31250000000000005551e-01  2.48118699270891335251e-01  1.75215037602760581592e-05 1
2.18750000000000000000e-01  1.31250000000000005551e-01  2.54249078223598157233e-01  1.67098665478926378114e-05 1
2.25000000000000005551e-01  1.31250000000000005551e-01  2.60281439316798535177e-01  1.58917873651631680332e-05 1
2.31250000000000011102e-01  1.31250000000000005551e-01  2.66213456960455230327e-01  1.50675815924761202780e-05 1
2.37499999999999988898e-01  1.31250000000000005551e-01  2.72042844248846227284e-01  1.42375669777150548612e-05 1
2.43749999999999994449e-01  1.31250000000000005551e-01  2.77767353842213071680e-01  1.34020635159104450906e-05 1
2.50000000000000000000e-01  1.31250000000000005551e-01  2.83384778833131845133e-01  1.25613933049106840656e-05 1
2.56249999999999977796e-01  1.31250000000000005551e-01  2.88892953597319868120e-01  1.17158804230355073628e-05 1
2.62500000000000011102e-01  1.31250000000000005551e-01  2.94289754628582256313e-01  1.08658508610748327783e-05 1
2.68749999999999988898e-01  1.31250000000000005551e-01  2.99573101357369420139e-01  1.00116323025201126029e-05 1
2.75000000000000022204e-01  1.31250000000000005551e-01  3.04740956952950725611e-01  9.15355407116180685989e-06 1
2.81250000000000000000e-01  1.31250000000000005551e-01  3.09791329108629387434e-01  8.29194698254154261008e-06 1
2.87499999999999977796e-01  1.31250000000000005551e-01  3.14722270809747350917e-01  7.42714314883041737403e-06 1
2.93750000000000011102e-01  1.31250000000000005551e-01  3.19531881084499036483e-01  6.55947605321394178191e-06 1
2.99999999999999988898e-01  1.31250000000000005551e-01  3.24218305736501566372e-01  5.68928013100489238241e-06 1
3.06250000000000022204e-01  1.31250000000000005551e-01  3.28779738059889303781e-01  4.81689090731096669629e-06 1
3.12500000000000000000e-01  1.31250000000000005551e-01  3.33214419535605488321e-01  3.94264463948745813582e-06 1
3.18749999999999977796e-01  1.31250000000000005551e-01  3.37520640509605951429e-01  3.06687844880970672534e-06 1
3.25000000000000011102e-01  1.31250000000000005551e-01  3.41696740851681779461e-01  2.18992990902444617518e-06 1
3.31249999999999988898e-01  1.31250000000000005551e-01  3.45741110595640388503e-01  1.31213708554067665091e-06 1
3.37500000000000022204e-01  1.31250000000000005551e-01  3.49652190559999020980e-01  4.33838425795141091612e-07 1
3.43750000000000000000e-01  1.31250000000000005551e-01  3.53428472948963401379e-01  4.44627486551052442110e-07 1
3.49999999999999977796e-01  1.31250000000000005551e-01  3.57068501933782200819e-01  1.32292199173100755161e-06 1
3.56250000000000011102e-01  1.31250000000000005551e-01  3.60570874214005743230e-01  2.20070647544146069663e-06 1
3.62499999999999988898e-01  1.31250000000000005551e-01  3.63934239558417638172e-01  3.07764256657350188107e-06 1
3.68750000000000022204e-01  1.31250000000000005551e-01  3.67157301325707674522e-01  3.95339213510315090616e-06 1
3.75000000000000000000e-01  1.31250000000000005551e-01  3.70238816964157224643e-01  4.82761761633199171229e-06 1
3.81249999999999977796e-01  1.31250000000000005551e-01  3.73177598490846973434e-01  5.69998196103815857327e-06 1
3.87500000000000011102e-01  1.31250000000000005551e-01  3.75972512949564574569e-01  6.57014884791751185844e-06 1
3.93749999999999988898e-01  1.31250000000000005551e-01  3.78622482847565056119e-01  7.43778282824569814125e-06 1
4.00000000000000022204e-01  1.31250000000000005551e-01  3.81126486571036260376e-01  8.30254938488650395811e-06 1
4.06250000000000000000e-01  1.31250000000000005551e-01  3.83483558778860034177e-01  9.16411515067272475221e-06 1
4.12499999999999977796e-01  1.31250000000000005551e-01  3.85692790774796456787e-01  1.00221480103246385340e-05 1
4.18750000000000011102e-01  1.31250000000000005551e-01  3.87753330857937450471e-01  1.08763170949544019095e-05 1
4.24999999999999988898e-01  1.31250000000000005551e-01  3.89664384650805550869e-01  1.17262931573769435545e-05 1
4.31250000000000022204e-01  1.31250000000000005551e-01  3.91425215405742488173e-01  1.25717485582321764070e-05 1
4.37500000000000000000e-01  1.31250000000000005551e-01  3.93035144289085258684e-01  1.34123572462230278290e-05 1
4.43749999999999977796e-01  1.31250000000000005551e-01  3.94493550642504631210e-01  1.42477952491670833979e-05 1
4.50000000000000011102e-01  1.31250000000000005551e-01  3.95799872222597992621e-01  1.50777404811508475291e-05 1
4.56249999999999988898e-01  1.31250000000000005551e-01  3.96953605417615429385e-01  1.59018728961290989332e-05 1
4.62500000000000022204e-01  1.31250000000000005551e-01  3.97954305441344746708e-01  1.67198748787233952839e-05 1
4.68750000000000000000e-01  1.31250000000000005551e-01  3.98801586504930916099e-01  1.75314310202345779999e-05 1
4.74999999999999977796e-01  1.31250000000000005551e-01  3.99495121965367572248e-01  1.83362284780219653157e-05 1
4.81250000000000011102e-01  1.31250000000000005551e-01  4.00034644451578824675e-01  1.91339569410864385191e-05 1
4.87499999999999988898e-01  1.31250000000000005551e-01  4.00419945967319057534e-01  1.99243089267775452811e-05 1
4.93750000000000022204e-01  1.31250000000000005551e-01  4.00650877971575003489e-01  2.07069796839265407584e-05 1
5.00000000000000000000e-01  1.31250000000000005551e-01  4.00727351435629708387e-01  2.14816675112583510554e-05 1
5.06249999999999977796e-01  1.31250000000000005551e-01  4.00649336877473893903e-01  2.22480737850361265373e-05 1
5.12499999999999955591e-01  1.31250000000000005551e-01  4.00416864373332015425e-01  2.30059029138196535769e-05 1
5.18750000000000044409e-01  1.31250000000000005551e-01  4.00030023545547730457e-01  2.37548629721806570103e-05 1
5.25000000000000022204e-01  1.31250000000000005551e-01  3.99488963528903229250e-01  2.44946649423649631672e-05 1
5.31250000000000000000e-01  1.31250000000000005551e-01  3.98793892912099046111e-01  2.52250238521600778085e-05 1
5.37499999999999977796e-01  1.31250000000000005551e-01  3.97945079658277078849e-01  2.59456579463912540007e-05 1
5.43749999999999955591e-01  1.31250000000000005551e-01  3.96942851000946284046e-01  2.66562895652744380470e-05 1
5.50000000000000044409e-01  1.31250000000000005551e-01  3.95787593318434827161e-01  2.73566446442607968947e-05 1
5.56250000000000022204e-01  1.31250000000000005551e-01  3.94479751984563364875e-01  2.80464531904334180012e-05 1
5.62500000000000000000e-01  1.31250000000000005551e-01  3.93019831196952329488e-01  2.87254493791522236279e-05 1
5.68749999999999977796e-01  1.31250000000000005551e-01  3.91408393783058805582e-01  2.93933712419147674666e-05 1
5.74999999999999955591e-01  1.31250000000000005551e-01  3.89646060982422159924e-01  3.00499615408233999858e-05 1
5.81250000000000044409e-01  1.31250000000000005551e-01  3.87733512208138286770e-01  3.06949668941181030846e-05 1
5.87500000000000022204e-01  1.31250000000000005551e-01  3.85671484783977780442e-01  3.13281388290009843445e-05 1
5.93750000000000000000e-01  1.31250000000000005551e-01  3.83460773660916631744e-01  3.19492330940751578794e-05 1
5.99999999999999977796e-01  1.31250000000000005551e-01  3.81102231110035161166e-01  3.25580103860412251038e-05 1
6.06249999999999955591e-01  1.31250000000000005551e-01  3.78596766394480199747e-01  3.31542359131575814502e-05 1
6.12500000000000044409e-01  1.31250000000000005551e-01  3.75945345418582321795e-01  3.37376798301147751147e-05 1
6.18750000000000022204e-01  1.31250000000000005551e-01  3.73148990355548604292e-01  3.43081172594628114325e-05 1
6.25000000000000000000e-01  1.31250000000000005551e-01  3.70208779253488884375e-01  3.48653282846722589738e-05 1
6.31249999999999977796e-01  1.31250000000000005551e-01  3.67125845619807655851e-01  3.54090980351218220790e-05 1
6.37499999999999955591e-01  1.31250000000000005551e-01  3.63901377984111706887e-01  3.59392168726158089953e-05 1