Titile = 'Poisson'  
VARIABLES = X, Y, U, Error, Rank 
zone N= 3381, E = 6400
DATAPACKING=POINT, ZONETYPE=FETRIANGLE
0.00000000000000000000e+00  6.25000000000000000000e-01  0.00000000000000000000e+00  0.00000000000000000000e+00 5
6.25000000000000034694e-03  6.25000000000000000000e-01  1.81378948633192128848e-02  1.27174867643742306456e-06 5
1.25000000000000006939e-02  6.25000000000000000000e-01  3.62688095370598331812e-02  2.53069290772484079000e-06 5
1.87499999999999993061e-02  6.25000000000000000000e-01  5.43857538880903393363e-02  3.77666773393459109798e-06 5
2.50000000000000013878e-02  6.25000000000000000000e-01  7.24817431740295420317e-02  5.00950827013457722359e-06 5
3.12500000000000000000e-02  6.25000000000000000000e-01  9.05498007360264478560e-02  6.22904974119375953734e-06 5
3.74999999999999986122e-02  6.25000000000000000000e-01  1.08582960688422922035e-01  7.43512751742725352955e-06 5
4.37499999999999972244e-02  6.25000000000000000000e-01  1.26574270604261518436e-01  8.62757715178186224136e-06 5
5.00000000000000027756e-02  6.25000000000000000000e-01  1.44516794195606618212e-01  9.80623441509953508444e-06 5
5.62500000000000013878e-02  6.25000000000000000000e-01  1.62403613987639638960e-01  1.09709353351139515809e-05 5
6.25000000000000000000e-02  6.25000000000000000000e-01  1.80227833985498298031e-01  1.21215162386667518746e-05 5
6.87500000000000055511e-02  6.25000000000000000000e-01  1.97982582332838108474e-01  1.32578137908012649859e-05 5
7.49999999999999972244e-02  6.25000000000000000000e-01  2.15661013961079006673e-01  1.43796650421135208120e-05 5
8.12500000000000027756e-02  6.25000000000000000000e-01  2.33256313228323075570e-01  1.54869074786012639322e-05 5
8.74999999999999944489e-02  6.25000000000000000000e-01  2.50761696546928758433e-01  1.65793790694035436672e-05 5
9.37500000000000000000e-02  6.25000000000000000000e-01  2.68170414998712469679e-01  1.76569183299446486046e-05 5
1.00000000000000005551e-01  6.25000000000000000000e-01  2.85475756936799607288e-01  1.87193643697014522331e-05 5
1.06249999999999997224e-01  6.25000000000000000000e-01  3.02671050573078970203e-01  1.97665569673377561344e-05 5
1.12500000000000002776e-01  6.25000000000000000000e-01  3.19749666550300071233e-01  2.07983366364850041919e-05 5
1.18749999999999994449e-01  6.25000000000000000000e-01  3.36705020497811369218e-01  2.18145446924111752196e-05 5
1.25000000000000000000e-01  6.25000000000000000000e-01  3.53530575569938609881e-01  2.28150233351764875067e-05 5
1.31250000000000005551e-01  6.25000000000000000000e-01  3.70219844966043987178e-01  2.37996157295694565903e-05 5
1.37500000000000011102e-01  6.25000000000000000000e-01  3.86766394431286630873e-01  2.47681660904830458492e-05 5
1.43749999999999988898e-01  6.25000000000000000000e-01  4.03163844737118359784e-01  2.57205197745080660354e-05 5
1.49999999999999994449e-01  6.25000000000000000000e-01  4.19405874140561352181e-01  2.66565233765225784168e-05 5
1.56250000000000000000e-01  6.25000000000000000000e-01  4.35486220821323488650e-01  2.75760248252820971970e-05 5
1.62500000000000005551e-01  6.25000000000000000000e-01  4.51398685295801460615e-01  2.84788734897789552747e-05 5
1.68750000000000011102e-01  6.25000000000000000000e-01  4.67137132807047716909e-01  2.93649202898205174961e-05 5
1.74999999999999988898e-01  6.25000000000000000000e-01  4.82695495689789699778e-01  3.02340177993909442478e-05 5
1.81249999999999994449e-01  6.25000000000000000000e-01  4.98067775709564120046e-01  3.10860203698859471899e-05 5
1.87500000000000000000e-01  6.25000000000000000000e-01  5.13248046375089694848e-01  3.19207842469637625982e-05 5
1.93750000000000005551e-01  6.25000000000000000000e-01  5.28230455222984174313e-01  3.27381676844540336901e-05 5
2.00000000000000011102e-01  6.25000000000000000000e-01  5.43009226073919548661e-01  3.35380310793054192686e-05 5
2.06249999999999988898e-01  6.25000000000000000000e-01  5.57578661259379937398e-01  3.43202370949313717574e-05 5
2.12499999999999994449e-01  6.25000000000000000000e-01  5.71933143818143419068e-01  3.50846507922719652584e-05 5
2.18750000000000000000e-01  6.25000000000000000000e-01  5.86067139661658464966e-01  3.58311397502530937231e-05 5
2.25000000000000005551e-01  6.25000000000000000000e-01  5.99975199707440953745e-01  3.65595742166657799999e-05 5
2.31250000000000011102e-01  6.25000000000000000000e-01  6.13651961979722604390e-01  3.72698272348426229428e-05 5
2.37499999999999988898e-01  6.25000000000000000000e-01  6.27092153676520047689e-01  3.79617747670035754481e-05 5
2.43749999999999994449e-01  6.25000000000000000000e-01  6.40290593202283986329e-01  3.86352958587909967036e-05 5
2.50000000000000000000e-01  6.25000000000000000000e-01  6.53242192165434998330e-01  3.92902727531785345150e-05 5
2.56249999999999977796e-01  6.25000000000000000000e-01  6.65941957339935219906e-01  3.99265910369095422539e-05 5
2.62500000000000011102e-01  6.25000000000000000000e-01  6.78384992590172819504e-01  4.05441397832717598249e-05 5
2.68749999999999988898e-01  6.25000000000000000000e-01  6.90566500758431844886e-01  4.11428116781076269604e-05 5
2.75000000000000022204e-01  6.25000000000000000000e-01  7.02481785514178613816e-01  4.17225031716927929892e-05 5
2.81250000000000000000e-01  6.25000000000000000000e-01  7.14126253164498181469e-01  4.22831146050794970392e-05 5
2.87499999999999977796e-01  6.25000000000000000000e-01  7.25495414424947804299e-01  4.28245503532043159112e-05 5
2.93750000000000011102e-01  6.25000000000000000000e-01  7.36584886150166040508e-01  4.33467189561165255896e-05 5
2.99999999999999988898e-01  6.25000000000000000000e-01  7.47390393023563803787e-01  4.38495332489852174263e-05 5
3.06250000000000022204e-01  6.25000000000000000000e-01  7.57907769205425019265e-01  4.43329105114242949526e-05 5
3.12500000000000000000e-01  6.25000000000000000000e-01  7.68132959938838677516e-01  4.47967725776265979221e-05 5
3.18749999999999977796e-01  6.25000000000000000000e-01  7.78062023112773282207e-01  4.52410459785834717650e-05 5
3.25000000000000011102e-01  6.25000000000000000000e-01  7.87691130781737247624e-01  4.56656620680950808833e-05 5
3.31249999999999988898e-01  6.25000000000000000000e-01  7.97016570641431165711e-01  4.60705571431185845199e-05 5
3.37500000000000022204e-01  6.25000000000000000000e-01  8.06034747459810740899e-01  4.64556725693343608441e-05 5
3.43750000000000000000e-01  6.25000000000000000000e-01  8.14742184463013940920e-01  4.68209549071563202460e-05 5
3.49999999999999977796e-01  6.25000000000000000000e-01  8.23135524675638996506e-01  4.71663560167590034666e-05 5
3.56250000000000011102e-01  6.25000000000000000000e-01  8.31211532214805814966e-01  4.74918331930807013919e-05 5
3.62499999999999988898e-01  6.25000000000000000000e-01  8.38967093537571595441e-01  4.77973492606365013557e-05 5
3.68750000000000022204e-01  6.25000000000000000000e-01  8.46399218641156192433e-01  4.80828726941995299171e-05 5
3.75000000000000000000e-01  6.25000000000000000000e-01  8.53505042215550346896e-01  4.83483777233839617793e-05 5
3.81249999999999977796e-01  6.25000000000000000000e-01  8.60281824748057477592e-01  4.85938444342304265433e-05 5
3.87500000000000011102e-01  6.25000000000000000000e-01  8.66726953579320724685e-01  4.88192588835589802443e-05 5
3.93749999999999988898e-01  6.25000000000000000000e-01  8.72837943910478974985e-01  4.90246131772398285875e-05 5
4.00000000000000022204e-01  6.25000000000000000000e-01  8.78612439760990904247e-01  4.92099055885431013735e-05 5
4.06250000000000000000e-01  6.25000000000000000000e-01  8.84048214876838156506e-01  4.93751406288600591665e-05 5
4.12499999999999977796e-01  6.25000000000000000000e-01  8.89143173588677893093e-01  4.95203291577261950351e-05 5
4.18750000000000011102e-01  6.25000000000000000000e-01  8.93895351619687805744e-01  4.96454884543195973379e-05 5
4.24999999999999988898e-01  6.25000000000000000000e-01  8.98302916842733445435e-01  4.97506423090543492549e-05 5
4.31250000000000022204e-01  6.25000000000000000000e-01  9.02364169986600961337e-01  4.98358211017402297216e-05 5
4.37500000000000000000e-01  6.25000000000000000000e-01  9.06077545291013253248e-01  4.99010618745243661465e-05 5
4.43749999999999977796e-01  6.25000000000000000000e-01  9.09441611110166303611e-01  4.99464084131595598137e-05 5
4.50000000000000011102e-01  6.25000000000000000000e-01  9.12455070464572193245e-01  4.99719113122853997311e-05 5
4.56249999999999988898e-01  6.25000000000000000000e-01  9.15116761540976653144e-01  4.99776280491470714651e-05 5
4.62500000000000022204e-01  6.25000000000000000000e-01  9.17425658140180733113e-01  4.99636230414379767240e-05 5
4.68750000000000000000e-01  6.25000000000000000000e-01  9.19380870072569744700e-01  4.99299677121367579957e-05 5
4.74999999999999977796e-01  6.25000000000000000000e-01  9.20981643501211033609e-01  4.98767405496813864829e-05 5
4.81250000000000011102e-01  6.25000000000000000000e-01  9.22227361232391129597e-01  4.98040271585953320255e-05 5
4.87499999999999988898e-01  6.25000000000000000000e-01  9.23117542953464487177e-01  4.97119203182183611034e-05 5
4.93750000000000022204e-01  6.25000000000000000000e-01  9.23651845417939654226e-01  4.96005200300020376858e-05 5
5.00000000000000000000e-01  6.25000000000000000000e-01  9.23830062577721489170e-01  4.94699335652493132898e-05 5
5.06249999999999977796e-01  6.25000000000000000000e-01  9.23652125662473788559e-01  4.93202754958677047625e-05 5
5.12499999999999955591e-01  6.25000000000000000000e-01  9.23118103206024942509e-01  4.91516677577630289875e-05 5
5.18750000000000044409e-01  6.25000000000000000000e-01  9.22228201019879789690e-01  4.89642396699352389078e-05 5
5.25000000000000022204e-01  6.25000000000000000000e-01  9.20982762113772945867e-01  4.87581279877691287084e-05 5
5.31250000000000000000e-01  6.25000000000000000000e-01  9.19382266563369743295e-01  4.85334769122491849203e-05 5
5.37499999999999977796e-01  6.25000000000000000000e-01  9.17427331325082362490e-01  4.82904381398086002264e-05 5
5.43749999999999955591e-01  6.25000000000000000000e-01  9.15118709998153367913e-01  4.80291708724323029855e-05 5
5.50000000000000044409e-01  6.25000000000000000000e-01  9.12457292534016528585e-01  4.77498418678390379455e-05 5
5.56250000000000022204e-01  6.25000000000000000000e-01  9.09444104893149529723e-01  4.74526254299334482312e-05 5
5.62500000000000000000e-01  6.25000000000000000000e-01  9.06080308649440668844e-01  4.71377034471087696943e-05 5
5.68749999999999977796e-01  6.25000000000000000000e-01  9.02367200542292247079e-01  4.68052654104544885172e-05 5
5.74999999999999955591e-01  6.25000000000000000000e-01  8.98306211976632074112e-01  4.64555084105366944414e-05 5
5.81250000000000044409e-01  6.25000000000000000000e-01  8.93898908470970643414e-01  4.60886371714819276235e-05 5
5.87500000000000022204e-01  6.25000000000000000000e-01  8.89146989053786640511e-01  4.57048640489787771912e-05 5
5.93750000000000000000e-01  6.25000000000000000000e-01  8.84052285608431853703e-01  4.53044090351628625513e-05 5
5.99999999999999977796e-01  6.25000000000000000000e-01  8.78616762166816389623e-01  4.48874997631687477906e-05 5
6.06249999999999955591e-01  6.25000000000000000000e-01  8.72842514152141313311e-01  4.44543715150125251512e-05 5
6.12500000000000044409e-01  6.25000000000000000000e-01  8.66731767570978917092e-01  4.40052672252555510113e-05 5
6.18750000000000022204e-01  6.25000000000000000000e-01  8.60286878155024803405e-01  4.35404374670156357752e-05 5
6.25000000000000000000e-01  6.25000000000000000000e-01  8.53510330452815324520e-01  4.30601404584063374159e-05 5
6.31249999999999977796e-01  6.25000000000000000000e-01  8.46404736871813279109e-01  4.25646420371128542115e-05 5
6.37499999999999955591e-01  6.25000000000000000000e-01  8.38972836671152411014e-01  4.20542156800429722807e-05 5
6.43750000000000044409e-01  6.25000000000000000000e-01  8.31217494905535758676e-01  4.15291424630259697892e-05 5
6.50000000000000022204e-01  6.25000000000000000000e-01  8.23141701320572960476e-01  4.09897110829060551396e-05 5
6.56250000000000000000e-01  6.25000000000000000000e-01  8.14748569200127281675e-01  4.04362177939265876603e-05 5
6.62499999999999977796e-01  6.25000000000000000000e-01  8.06041334165953693436e-01  3.98689664266038690243e-05 5
6.68749999999999955591e-01  6.25000000000000000000e-01  7.97023352930215978063e-01  3.92882683584172553992e-05 5
6.75000000000000044409e-01  6.25000000000000000000e-01  7.87698102001324951260e-01  3.86944424805024667080e-05 5
6.81250000000000022204e-01  6.25000000000000000000e-01  7.78069176343551438535e-01  3.80878152005381664935e-05 5
6.87500000000000000000e-01  6.25000000000000000000e-01  7.68140287991051273764e-01  3.74687203652523947994e-05 5
6.93749999999999977796e-01  6.25000000000000000000e-01  7.57915264616650929952e-01  3.68374992855136085268e-05 5
6.99999999999999955591e-01  6.25000000000000000000e-01  7.47398048056154840069e-01  3.61945006579489358955e-05 5
7.06250000000000044409e-01  6.25000000000000000000e-01  7.36592692788555991612e-01  3.55400805661654217715e-05 5
7.12500000000000022204e-01  6.25000000000000000000e-01  7.25503364372880321653e-01  3.48746024206869620343e-05 5
7.18750000000000000000e-01  6.25000000000000000000e-01  7.14134337842187272294e-01  3.41984369160996948267e-05 5
7.24999999999999977796e-01  6.25000000000000000000e-01  7.02489996055341014980e-01  3.35119620092916292720e-05 5
7.31249999999999955591e-01  6.25000000000000000000e-01  6.90574828007272656372e-01  3.28155628376292085591e-05 5
7.37500000000000044409e-01  6.25000000000000000000e-01  6.78393427098249679474e-01  3.21096317063007674619e-05 5
7.43750000000000022204e-01  6.25000000000000000000e-01  6.65950489362954645145e-01  3.13945680177063479732e-05 5
7.50000000000000000000e-01  6.25000000000000000000e-01  6.53250811659988550595e-01  3.06707781997372919136e-05 5
7.56249999999999977796e-01  6.25000000000000000000e-01  6.40299289822462536215e-01  2.99386756802411113654e-05 5
7.62499999999999955591e-01  6.25000000000000000000e-01  6.27100916770506944253e-01  2.91986807804400783084e-05 5
7.68750000000000044409e-01  6.25000000000000000000e-01  6.13660780586269716252e-01  2.84512206876197382144e-05 5
7.75000000000000022204e-01  6.25000000000000000000e-01  5.99984062552293195836e-01  2.76967293645347112374e-05 5
7.81250000000000000000e-01  6.25000000000000000000e-01  5.86076035153939245426e-01  2.69356474694726344410e-05 5
7.87499999999999977796e-01  6.25000000000000000000e-01  5.71942060046664257911e-01  2.61684222716551673216e-05 5
7.93749999999999955591e-01  6.25000000000000000000e-01  5.57587585988893352784e-01  2.53955075816270081646e-05 5
8.00000000000000044409e-01  6.25000000000000000000e-01  5.43018146741341967143e-01  2.46173636569979592537e-05 5
8.06250000000000022204e-01  6.25000000000000000000e-01  5.28239358933567104692e-01  2.38344571015236539324e-05 5
8.12500000000000000000e-01  6.25000000000000000000e-01  5.13256919898574359706e-01  2.30472607622989045240e-05 5
8.18749999999999977796e-01  6.25000000000000000000e-01  4.98076605476293843289e-01  2.22562536403292376974e-05 5
8.24999999999999955591e-01  6.25000000000000000000e-01  4.82704267786843277399e-01  2.14619207459243455105e-05 5
8.31250000000000044409e-01  6.25000000000000000000e-01  4.67145832974317221087e-01  2.06647530203163398710e-05 5
8.37500000000000022204e-01  6.25000000000000000000e-01  4.51407298922090971516e-01  1.98652472002125435324e-05 5
8.43750000000000000000e-01  6.25000000000000000000e-01  4.35494732940484186035e-01  1.90639056648067573008e-05 5
8.49999999999999977796e-01  6.25000000000000000000e-01  4.19414269427608510377e-01  1.82612363294754054266e-05 5
8.56249999999999955591e-01  6.25000000000000000000e-01  4.03172107504402466027e-01  1.74577524907904013673e-05 5
8.62500000000000044409e-01  6.25000000000000000000e-01  3.86774508624686985669e-01  1.66539726899617157585e-05 5
8.68750000000000022204e-01  6.25000000000000000000e-01  3.70227794161226142489e-01  1.58504205476361903493e-05 5
8.75000000000000000000e-01  6.25000000000000000000e-01  3.53538342968672814060e-01  1.50476246010278202903e-05 5
8.81249999999999977796e-01  6.25000000000000000000e-01  3.36712588924376776678e-01  1.42461181270037151592e-05 5
8.87499999999999955591e-01  6.25000000000000000000e-01  3.19757018447948904161e-01  1.34464389879296319918e-05 5
8.93750000000000044409e-01  6.25000000000000000000e-01  3.02678168000596714560e-01  1.26491294494268657900e-05 5
9.00000000000000022204e-01  6.25000000000000000000e-01  2.85482621565186056589e-01  1.18547359833631738013e-05 5
9.06250000000000000000e-01  6.25000000000000000000e-01  2.68177008107985781482e-01  1.10638090566883562360e-05 5
9.12499999999999977796e-01  6.25000000000000000000e-01  2.50767999023041032736e-01  1.02769029574623083079e-05 5
9.18749999999999955591e-01  6.25000000000000000000e-01  2.33262305560206190114e-01  9.49457559570876519217e-06 5
9.25000000000000044409e-01  6.25000000000000000000e-01  2.15666676237899007651e-01  8.71738822222356546376e-06 5
9.31250000000000022204e-01  6.25000000000000000000e-01  1.97987894241296924491e-01  7.94590533195749237905e-06 5
9.37500000000000000000e-01  6.25000000000000000000e-01  1.80232774807441070708e-01  7.18069429622714139327e-06 5
9.43749999999999977796e-01  6.25000000000000000000e-01  1.62408162597735772348e-01  6.42232523917485309539e-06 5
9.49999999999999955591e-01  6.25000000000000000000e-01  1.44520929059258201876e-01  5.67137076362689285247e-06 5
9.56250000000000044409e-01  6.25000000000000000000e-01  1.26577969775691384635e-01  4.92840572194341852708e-06 5
9.62500000000000022204e-01  6.25000000000000000000e-01  1.08586201808975962857e-01  4.19400696428928743131e-06 5
9.68750000000000000000e-01  6.25000000000000000000e-01  9.05525610326757407487e-02  3.46875309210903370882e-06 5
9.74999999999999977796e-01  6.25000000000000000000e-01  7.24839994580642743571e-02  2.75322423552715189743e-06 5
9.81249999999999955591e-01  6.25000000000000000000e-01  5.43874825540663284218e-02  2.04800175836877818014e-06 5
9.87500000000000044409e-01  6.25000000000000000000e-01  3.62699865619221795132e-02  1.35366804528136430719e-06 5
9.93750000000000022204e-01  6.25000000000000000000e-01  1.81384958057501863293e-02  6.70806245679084200972e-07 5
1.00000000000000000000e+00  6.25000000000000000000e-01  0.00000000000000000000e+00  1.13142611228770026067e-16 5
0.00000000000000000000e+00  6.31249999999999977796e-01  0.00000000000000000000e+00  0.00000000000000000000e+00 5
6.25000000000000034694e-03  6.31249999999999977796e-01  1.79868753699109519550e-02  1.27721625820670370288e-06 5
1.25000000000000006939e-02  6.31249999999999977796e-01  3.59668293514394457611e-02  2.54104565676482874181e-06 5
1.87499999999999993061e-02  6.31249999999999977796e-01  5.39329299935430439561e-02  3.79133748386328850444e-06 5
2.50000000000000013878e-02  6.31249999999999977796e-01  7.18782506910709689807e-02  5.02794108110660165067e-06 5
3.12500000000000000000e-02  6.31249999999999977796e-01  8.97958728551353085878e-02  6.25070586846021569727e-06 5
3.74999999999999986122e-02  6.31249999999999977796e-01  1.07678888580390805241e-01  7.45948137031993141477e-06 5
4.37499999999999972244e-02  6.31249999999999977796e-01  1.25520403308196387693e-01  8.65411724090825451583e-06 5
5.00000000000000027756e-02  6.31249999999999977796e-01  1.43313538484630353942e-01  9.83446329078097036813e-06 5
5.62500000000000013878e-02  6.31249999999999977796e-01  1.61051434212332755802e-01  1.10003695156513092712e-05 5
6.25000000000000000000e-02  6.31249999999999977796e-01  1.78727251895151900696e-01  1.21516861288639699268e-05 5
6.87500000000000055511e-02  6.31249999999999977796e-01  1.96334176874580962346e-01  1.32882635915099189816e-05 5
7.49999999999999972244e-02  6.31249999999999977796e-01  2.13865421056955107293e-01  1.44099526533381094850e-05 5
8.12500000000000027756e-02  6.31249999999999977796e-01  2.31314225530413336562e-01  1.55166043882271065257e-05 5
8.74999999999999944489e-02  6.31249999999999977796e-01  2.48673863170595060845e-01  1.66080702437010341299e-05 5
9.37500000000000000000e-02  6.31249999999999977796e-01  2.65937641234089527931e-01  1.76842020834788726802e-05 5
1.00000000000000005551e-01  6.31249999999999977796e-01  2.83098903938616308640e-01  1.87448522442346110495e-05 5
1.06249999999999997224e-01  6.31249999999999977796e-01  3.00151035028955570638e-01  1.97898735928014879448e-05 5
1.12500000000000002776e-01  6.31249999999999977796e-01  3.17087460327636683211e-01  2.08191195867346579007e-05 5
1.18749999999999994449e-01  6.31249999999999977796e-01  3.33901650269394278947e-01  2.18324443451711758257e-05 5
1.25000000000000000000e-01  6.31249999999999977796e-01  3.50587122418430041648e-01  2.28297027152213338752e-05 5
1.31250000000000005551e-01  6.31249999999999977796e-01  3.67137443967487653307e-01  2.38107503551243659956e-05 5
1.37500000000000011102e-01  6.31249999999999977796e-01  3.83546234217798820421e-01  2.47754438137959276389e-05 5
1.43749999999999988898e-01  6.31249999999999977796e-01  3.99807167038928656932e-01  2.57236406210892276647e-05 5
1.49999999999999994449e-01  6.31249999999999977796e-01  4.15913973307585449479e-01  2.66551993775565598810e-05 5
1.56250000000000000000e-01  6.31249999999999977796e-01  4.31860443324443066260e-01  2.75699798518713734552e-05 5
1.62500000000000005551e-01  6.31249999999999977796e-01  4.47640429208047696541e-01  2.84678430861884379510e-05 5
1.68750000000000011102e-01  6.31249999999999977796e-01  4.63247847264894263564e-01  2.93486514982843615940e-05 5
1.74999999999999988898e-01  6.31249999999999977796e-01  4.78676680334749748980e-01  3.02122689910255814993e-05 5
1.81249999999999994449e-01  6.31249999999999977796e-01  4.93920980110311214073e-01  3.10585610768243647328e-05 5
1.87500000000000000000e-01  6.31249999999999977796e-01  5.08974869430334875275e-01  3.18873949856079974552e-05 5
1.93750000000000005551e-01  6.31249999999999977796e-01  5.23832544545321465712e-01  3.26986397888306967729e-05 5
2.00000000000000011102e-01  6.31249999999999977796e-01  5.38488277354896349713e-01  3.34921665249288125210e-05 5
2.06249999999999988898e-01  6.31249999999999977796e-01  5.52936417616016973042e-01  3.42678483343794582083e-05 5
2.12499999999999994449e-01  6.31249999999999977796e-01  5.67171395121174981568e-01  3.50255605815474879705e-05 5
2.18750000000000000000e-01  6.31249999999999977796e-01  5.81187721845735638659e-01  3.57651809854697688706e-05 5
2.25000000000000005551e-01  6.31249999999999977796e-01  5.94979994063577599661e-01  3.64865897644062187055e-05 5
2.31250000000000011102e-01  6.31249999999999977796e-01  6.08542894430247671700e-01  3.71896697667351006089e-05 5
2.37499999999999988898e-01  6.31249999999999977796e-01  6.21871194032806440255e-01  3.78743066082876111977e-05 5
2.43749999999999994449e-01  6.31249999999999977796e-01  6.34959754405571619174e-01  3.85403888182311860078e-05 5
2.50000000000000000000e-01  6.31249999999999977796e-01  6.47803529511010278696e-01  3.91878079663010581157e-05 5
2.56249999999999977796e-01  6.31249999999999977796e-01  6.60397567684976594116e-01  3.98164588103488981119e-05 5
2.62500000000000011102e-01  6.31249999999999977796e-01  6.72737013545561146621e-01  4.04262394484433684738e-05 5
2.68749999999999988898e-01  6.31249999999999977796e-01  6.84817109864857775925e-01  4.10170514330010504978e-05 5
2.75000000000000022204e-01  6.31249999999999977796e-01  6.96633199402842073766e-01  4.15887999335451397087e-05 5
2.81250000000000000000e-01  6.31249999999999977796e-01  7.08180726702723140065e-01  4.21413938739290117041e-05 5
2.87499999999999977796e-01  6.31249999999999977796e-01  7.19455239847074490278e-01  4.26747460542387102578e-05 5
2.93750000000000011102e-01  6.31249999999999977796e-01  7.30452392173999709435e-01  4.31887733161051556863e-05 5
2.99999999999999988898e-01  6.31249999999999977796e-01  7.41167943952779739725e-01  4.36833966488414660034e-05 5
3.06250000000000022204e-01  6.31249999999999977796e-01  7.51597764018236191852e-01  4.41585413536449422622e-05 5
3.12500000000000000000e-01  6.31249999999999977796e-01  7.61737831363292205999e-01  4.46141371537311925977e-05 5
3.18749999999999977796e-01  6.31249999999999977796e-01  7.71584236689025315670e-01  4.50501183445473074585e-05 5
3.25000000000000011102e-01  6.31249999999999977796e-01  7.81133183911682849043e-01  4.54664239118995894273e-05 5
3.31249999999999988898e-01  6.31249999999999977796e-01  7.90380991626034812292e-01  4.58629976648472492684e-05 5
3.37500000000000022204e-01  6.31249999999999977796e-01  7.99324094524524464411e-01  4.62397883597143177781e-05 5
3.43750000000000000000e-01  6.31249999999999977796e-01  8.07959044771655698902e-01  4.65967498252117806601e-05 5
3.49999999999999977796e-01  6.31249999999999977796e-01  8.16282513333099424280e-01  4.69338410812314421605e-05 5
3.56250000000000011102e-01  6.31249999999999977796e-01  8.24291291258994140989e-01  4.72510264593051232396e-05 5
3.62499999999999988898e-01  6.31249999999999977796e-01  8.31982290920959099978e-01  4.75482757141820755464e-05 5
3.68750000000000022204e-01  6.31249999999999977796e-01  8.39352547202324550391e-01  4.78255641463976033378e-05 5
3.75000000000000000000e-01  6.31249999999999977796e-01  8.46399218641157080611e-01  4.80828726933113514974e-05 5
3.81249999999999977796e-01  6.31249999999999977796e-01  8.53119588525576677540e-01  4.83201880585593102069e-05 5
3.87500000000000011102e-01  6.31249999999999977796e-01  8.59511065941012897262e-01  4.85375028045353928974e-05 5
3.93749999999999988898e-01  6.31249999999999977796e-01  8.65571186768956835067e-01  4.87348154498690178116e-05 5
4.00000000000000022204e-01  6.31249999999999977796e-01  8.71297614636824535594e-01  4.89121305723427823864e-05 5
4.06250000000000000000e-01  6.31249999999999977796e-01  8.76688141818567134855e-01  4.90694589115880930308e-05 5
4.12499999999999977796e-01  6.31249999999999977796e-01  8.81740690085718203939e-01  4.92068174389181933748e-05 5
4.18750000000000011102e-01  6.31249999999999977796e-01  8.86453311508465402468e-01  4.93242294758999832993e-05 5
4.24999999999999988898e-01  6.31249999999999977796e-01  8.90824189206543937125e-01  4.94217247554162852907e-05 5
4.31250000000000022204e-01  6.31249999999999977796e-01  8.94851638049579567458e-01  4.94993395094844856885e-05 5
4.37500000000000000000e-01  6.31249999999999977796e-01  8.98534105306635466626e-01  4.95571165576302874456e-05 5
4.43749999999999977796e-01  6.31249999999999977796e-01  9.01870171244739005090e-01  4.95951053719467793712e-05 5
4.50000000000000011102e-01  6.31249999999999977796e-01  9.04858549676114232163e-01  4.96133621590288953485e-05 5
4.56249999999999988898e-01  6.31249999999999977796e-01  9.07498088453944973253e-01  4.96119499248104389721e-05 5
4.62500000000000022204e-01  6.31249999999999977796e-01  9.09787769916459154729e-01  4.95909385412884873290e-05 5
4.68750000000000000000e-01  6.31249999999999977796e-01  9.11726711279167156832e-01  4.95504048081407688642e-05 5
4.74999999999999977796e-01  6.31249999999999977796e-01  9.13314164975097098065e-01  4.94904325194500671614e-05 5
4.81250000000000011102e-01  6.31249999999999977796e-01  9.14549518942910921737e-01  4.94111125152185692855e-05 5
4.87499999999999988898e-01  6.31249999999999977796e-01  9.15432296862773386970e-01  4.93125427390994630628e-05 5
4.93750000000000022204e-01  6.31249999999999977796e-01  9.15962158339895471393e-01  4.91948282885790177943e-05 5
5.00000000000000000000e-01  6.31249999999999977796e-01  9.16138899035671805393e-01  4.90580814641594642467e-05 5
5.06249999999999977796e-01  6.31249999999999977796e-01  9.15962450746367617960e-01  4.89024218164324508962e-05 5
5.12499999999999955591e-01  6.31249999999999977796e-01  9.15432881429327216516e-01  4.87279761852699166980e-05 5
5.18750000000000044409e-01  6.31249999999999977796e-01  9.14550395176684793874e-01  4.85348787413464322071e-05 5
5.25000000000000022204e-01  6.31249999999999977796e-01  9.13315332136591107037e-01  4.83232710254410946504e-05 5
5.31250000000000000000e-01  6.31249999999999977796e-01  9.11728168381995662806e-01  4.80933019797458172206e-05 5
5.37499999999999977796e-01  6.31249999999999977796e-01  9.09789515727018271996e-01  4.78451279821712205376e-05 5
5.43749999999999955591e-01  6.31249999999999977796e-01  9.07500121490996680684e-01  4.75789128731030075414e-05 5
5.50000000000000044409e-01  6.31249999999999977796e-01  9.04860868210282998092e-01  4.72948279901519441637e-05 5
5.56250000000000022204e-01  6.31249999999999977796e-01  9.01872773297936136672e-01  4.69930521748151974748e-05 5
5.62500000000000000000e-01  6.31249999999999977796e-01  8.98536988651381207660e-01  4.66737718118892530583e-05 5
5.68749999999999977796e-01  6.31249999999999977796e-01  8.94854800208244149928e-01  4.63371808449020150533e-05 5
5.74999999999999955591e-01  6.31249999999999977796e-01  8.90827627450520576069e-01  4.59834807788883637159e-05 5
5.81250000000000044409e-01  6.31249999999999977796e-01  8.86457022857225163115e-01  4.56128807161393368119e-05 5
5.87500000000000022204e-01  6.31249999999999977796e-01  8.81744671305808691564e-01  4.52255973484305684451e-05 5
5.93750000000000000000e-01  6.31249999999999977796e-01  8.76692389422496498597e-01  4.48218549822243517156e-05 5
5.99999999999999977796e-01  6.31249999999999977796e-01  8.71302124881865203143e-01  4.44018855317862559673e-05 5
6.06249999999999955591e-01  6.31249999999999977796e-01  8.65575955655869977434e-01  4.39659285368376728798e-05 5
6.12500000000000044409e-01  6.31249999999999977796e-01  8.59516089212653766616e-01  4.35142311635550171900e-05 5
6.18750000000000022204e-01  6.31249999999999977796e-01  8.53124861665442768555e-01  4.30470481924682957242e-05 5
6.25000000000000000000e-01  6.31249999999999977796e-01  8.46404736871811502752e-01  4.25646420388892110509e-05 5
6.31249999999999977796e-01  6.31249999999999977796e-01  8.39358305483750233300e-01  4.20672827207146937667e-05 5
6.37499999999999955591e-01  6.31249999999999977796e-01  8.31988283948790541267e-01  4.15552478829628313406e-05 5