Titile = 'Poisson'  
VARIABLES = X, Y, U, Error, Rank 
zone N= 6601, E = 12800
DATAPACKING=POINT, ZONETYPE=FETRIANGLE
0.00000000000000000000e+00  0.00000000000000000000e+00  0.00000000000000000000e+00  0.00000000000000000000e+00 0
6.25000000000000034694e-03  0.00000000000000000000e+00  0.00000000000000000000e+00  0.00000000000000000000e+00 0
1.25000000000000006939e-02  0.00000000000000000000e+00  0.00000000000000000000e+00  0.00000000000000000000e+00 0
1.87499999999999993061e-02  0.00000000000000000000e+00  0.00000000000000000000e+00  0.00000000000000000000e+00 0
2.50000000000000013878e-02  0.00000000000000000000e+00  0.00000000000000000000e+00  0.00000000000000000000e+00 0
3.12500000000000000000e-02  0.00000000000000000000e+00  0.00000000000000000000e+00  0.00000000000000000000e+00 0
3.74999999999999986122e-02  0.00000000000000000000e+00  0.00000000000000000000e+00  0.00000000000000000000e+00 0
4.37499999999999972244e-02  0.00000000000000000000e+00  0.00000000000000000000e+00  0.00000000000000000000e+00 0
5.00000000000000027756e-02  0.00000000000000000000e+00  0.00000000000000000000e+00  0.00000000000000000000e+00 0
5.62500000000000013878e-02  0.00000000000000000000e+00  0.00000000000000000000e+00  0.00000000000000000000e+00 0
6.25000000000000000000e-02  0.00000000000000000000e+00  0.00000000000000000000e+00  0.00000000000000000000e+00 0
6.87500000000000055511e-02  0.00000000000000000000e+00  0.00000000000000000000e+00  0.00000000000000000000e+00 0
7.49999999999999972244e-02  0.00000000000000000000e+00  0.00000000000000000000e+00  0.00000000000000000000e+00 0
8.12500000000000027756e-02  0.00000000000000000000e+00  0.00000000000000000000e+00  0.00000000000000000000e+00 0
8.74999999999999944489e-02  0.00000000000000000000e+00  0.00000000000000000000e+00  0.00000000000000000000e+00 0
9.37500000000000000000e-02  0.00000000000000000000e+00  0.00000000000000000000e+00  0.00000000000000000000e+00 0
1.00000000000000005551e-01  0.00000000000000000000e+00  0.00000000000000000000e+00  0.00000000000000000000e+00 0
1.06249999999999997224e-01  0.00000000000000000000e+00  0.00000000000000000000e+00  0.00000000000000000000e+00 0
1.12500000000000002776e-01  0.00000000000000000000e+00  0.00000000000000000000e+00  0.00000000000000000000e+00 0
1.18749999999999994449e-01  0.00000000000000000000e+00  0.00000000000000000000e+00  0.00000000000000000000e+00 0
1.25000000000000000000e-01  0.00000000000000000000e+00  0.00000000000000000000e+00  0.00000000000000000000e+00 0
1.31250000000000005551e-01  0.00000000000000000000e+00  0.00000000000000000000e+00  0.00000000000000000000e+00 0
1.37500000000000011102e-01  0.00000000000000000000e+00  0.00000000000000000000e+00  0.00000000000000000000e+00 0
1.43749999999999988898e-01  0.00000000000000000000e+00  0.00000000000000000000e+00  0.00000000000000000000e+00 0
1.49999999999999994449e-01  0.00000000000000000000e+00  0.00000000000000000000e+00  0.00000000000000000000e+00 0
1.56250000000000000000e-01  0.00000000000000000000e+00  0.00000000000000000000e+00  0.00000000000000000000e+00 0
1.62500000000000005551e-01  0.00000000000000000000e+00  0.00000000000000000000e+00  0.00000000000000000000e+00 0
1.68750000000000011102e-01  0.00000000000000000000e+00  0.00000000000000000000e+00  0.00000000000000000000e+00 0
1.74999999999999988898e-01  0.00000000000000000000e+00  0.00000000000000000000e+00  0.00000000000000000000e+00 0
1.81249999999999994449e-01  0.00000000000000000000e+00  0.00000000000000000000e+00  0.00000000000000000000e+00 0
1.87500000000000000000e-01  0.00000000000000000000e+00  0.00000000000000000000e+00  0.00000000000000000000e+00 0
1.93750000000000005551e-01  0.00000000000000000000e+00  0.00000000000000000000e+00  0.00000000000000000000e+00 0
2.00000000000000011102e-01  0.00000000000000000000e+00  0.00000000000000000000e+00  0.00000000000000000000e+00 0
2.06249999999999988898e-01  0.00000000000000000000e+00  0.00000000000000000000e+00  0.00000000000000000000e+00 0
2.12499999999999994449e-01  0.00000000000000000000e+00  0.00000000000000000000e+00  0.00000000000000000000e+00 0
2.18750000000000000000e-01  0.00000000000000000000e+00  0.00000000000000000000e+00  0.00000000000000000000e+00 0
2.25000000000000005551e-01  0.00000000000000000000e+00  0.00000000000000000000e+00  0.00000000000000000000e+00 0
2.31250000000000011102e-01  0.00000000000000000000e+00  0.00000000000000000000e+00  0.00000000000000000000e+00 0
2.37499999999999988898e-01  0.00000000000000000000e+00  0.00000000000000000000e+00  0.00000000000000000000e+00 0
2.43749999999999994449e-01  0.00000000000000000000e+00  0.00000000000000000000e+00  0.00000000000000000000e+00 0
2.50000000000000000000e-01  0.00000000000000000000e+00  0.00000000000000000000e+00  0.00000000000000000000e+00 0
2.56249999999999977796e-01  0.00000000000000000000e+00  0.00000000000000000000e+00  0.00000000000000000000e+00 0
2.62500000000000011102e-01  0.00000000000000000000e+00  0.00000000000000000000e+00  0.00000000000000000000e+00 0
2.68749999999999988898e-01  0.00000000000000000000e+00  0.00000000000000000000e+00  0.00000000000000000000e+00 0
2.75000000000000022204e-01  0.00000000000000000000e+00  0.00000000000000000000e+00  0.00000000000000000000e+00 0
2.81250000000000000000e-01  0.00000000000000000000e+00  0.00000000000000000000e+00  0.00000000000000000000e+00 0
2.87499999999999977796e-01  0.00000000000000000000e+00  0.00000000000000000000e+00  0.00000000000000000000e+00 0
2.93750000000000011102e-01  0.00000000000000000000e+00  0.00000000000000000000e+00  0.00000000000000000000e+00 0
2.99999999999999988898e-01  0.00000000000000000000e+00  0.00000000000000000000e+00  0.00000000000000000000e+00 0
3.06250000000000022204e-01  0.00000000000000000000e+00  0.00000000000000000000e+00  0.00000000000000000000e+00 0
3.12500000000000000000e-01  0.00000000000000000000e+00  0.00000000000000000000e+00  0.00000000000000000000e+00 0
3.18749999999999977796e-01  0.00000000000000000000e+00  0.00000000000000000000e+00  0.00000000000000000000e+00 0
3.25000000000000011102e-01  0.00000000000000000000e+00  0.00000000000000000000e+00  0.00000000000000000000e+00 0
3.31249999999999988898e-01  0.00000000000000000000e+00  0.00000000000000000000e+00  0.00000000000000000000e+00 0
3.37500000000000022204e-01  0.00000000000000000000e+00  0.00000000000000000000e+00  0.00000000000000000000e+00 0
3.43750000000000000000e-01  0.00000000000000000000e+00  0.00000000000000000000e+00  0.00000000000000000000e+00 0
3.49999999999999977796e-01  0.00000000000000000000e+00  0.00000000000000000000e+00  0.00000000000000000000e+00 0
3.56250000000000011102e-01  0.00000000000000000000e+00  0.00000000000000000000e+00  0.00000000000000000000e+00 0
3.62499999999999988898e-01  0.00000000000000000000e+00  0.00000000000000000000e+00  0.00000000000000000000e+00 0
3.68750000000000022204e-01  0.00000000000000000000e+00  0.00000000000000000000e+00  0.00000000000000000000e+00 0
3.75000000000000000000e-01  0.00000000000000000000e+00  0.00000000000000000000e+00  0.00000000000000000000e+00 0
3.81249999999999977796e-01  0.00000000000000000000e+00  0.00000000000000000000e+00  0.00000000000000000000e+00 0
3.87500000000000011102e-01  0.00000000000000000000e+00  0.00000000000000000000e+00  0.00000000000000000000e+00 0
3.93749999999999988898e-01  0.00000000000000000000e+00  0.00000000000000000000e+00  0.00000000000000000000e+00 0
4.00000000000000022204e-01  0.00000000000000000000e+00  0.00000000000000000000e+00  0.00000000000000000000e+00 0
4.06250000000000000000e-01  0.00000000000000000000e+00  0.00000000000000000000e+00  0.00000000000000000000e+00 0
4.12499999999999977796e-01  0.00000000000000000000e+00  0.00000000000000000000e+00  0.00000000000000000000e+00 0
4.18750000000000011102e-01  0.00000000000000000000e+00  0.00000000000000000000e+00  0.00000000000000000000e+00 0
4.24999999999999988898e-01  0.00000000000000000000e+00  0.00000000000000000000e+00  0.00000000000000000000e+00 0
4.31250000000000022204e-01  0.00000000000000000000e+00  0.00000000000000000000e+00  0.00000000000000000000e+00 0
4.37500000000000000000e-01  0.00000000000000000000e+00  0.00000000000000000000e+00  0.00000000000000000000e+00 0
4.43749999999999977796e-01  0.00000000000000000000e+00  0.00000000000000000000e+00  0.00000000000000000000e+00 0
4.50000000000000011102e-01  0.00000000000000000000e+00  0.00000000000000000000e+00  0.00000000000000000000e+00 0
4.56249999999999988898e-01  0.00000000000000000000e+00  0.00000000000000000000e+00  0.00000000000000000000e+00 0
4.62500000000000022204e-01  0.00000000000000000000e+00  0.00000000000000000000e+00  0.00000000000000000000e+00 0
4.68750000000000000000e-01  0.00000000000000000000e+00  0.00000000000000000000e+00  0.00000000000000000000e+00 0
4.74999999999999977796e-01  0.00000000000000000000e+00  0.00000000000000000000e+00  0.00000000000000000000e+00 0
4.81250000000000011102e-01  0.00000000000000000000e+00  0.00000000000000000000e+00  0.00000000000000000000e+00 0
4.87499999999999988898e-01  0.00000000000000000000e+00  0.00000000000000000000e+00  0.00000000000000000000e+00 0
4.93750000000000022204e-01  0.00000000000000000000e+00  0.00000000000000000000e+00  0.00000000000000000000e+00 0
5.00000000000000000000e-01  0.00000000000000000000e+00  0.00000000000000000000e+00  0.00000000000000000000e+00 0
5.06249999999999977796e-01  0.00000000000000000000e+00  0.00000000000000000000e+00  0.00000000000000000000e+00 0
5.12499999999999955591e-01  0.00000000000000000000e+00  0.00000000000000000000e+00  0.00000000000000000000e+00 0
5.18750000000000044409e-01  0.00000000000000000000e+00  0.00000000000000000000e+00  0.00000000000000000000e+00 0
5.25000000000000022204e-01  0.00000000000000000000e+00  0.00000000000000000000e+00  0.00000000000000000000e+00 0
5.31250000000000000000e-01  0.00000000000000000000e+00  0.00000000000000000000e+00  0.00000000000000000000e+00 0
5.37499999999999977796e-01  0.00000000000000000000e+00  0.00000000000000000000e+00  0.00000000000000000000e+00 0
5.43749999999999955591e-01  0.00000000000000000000e+00  0.00000000000000000000e+00  0.00000000000000000000e+00 0
5.50000000000000044409e-01  0.00000000000000000000e+00  0.00000000000000000000e+00  0.00000000000000000000e+00 0
5.56250000000000022204e-01  0.00000000000000000000e+00  0.00000000000000000000e+00  0.00000000000000000000e+00 0
5.62500000000000000000e-01  0.00000000000000000000e+00  0.00000000000000000000e+00  0.00000000000000000000e+00 0
5.68749999999999977796e-01  0.00000000000000000000e+00  0.00000000000000000000e+00  0.00000000000000000000e+00 0
5.74999999999999955591e-01  0.00000000000000000000e+00  0.00000000000000000000e+00  0.00000000000000000000e+00 0
5.81250000000000044409e-01  0.00000000000000000000e+00  0.00000000000000000000e+00  0.00000000000000000000e+00 0
5.87500000000000022204e-01  0.00000000000000000000e+00  0.00000000000000000000e+00  0.00000000000000000000e+00 0
5.93750000000000000000e-01  0.00000000000000000000e+00  0.00000000000000000000e+00  0.00000000000000000000e+00 0
5.99999999999999977796e-01  0.00000000000000000000e+00  0.00000000000000000000e+00  0.00000000000000000000e+00 0
6.06249999999999955591e-01  0.00000000000000000000e+00  0.00000000000000000000e+00  0.00000000000000000000e+00 0
6.12500000000000044409e-01  0.00000000000000000000e+00  0.00000000000000000000e+00  0.00000000000000000000e+00 0
6.18750000000000022204e-01  0.00000000000000000000e+00  0.00000000000000000000e+00  0.00000000000000000000e+00 0
6.25000000000000000000e-01  0.00000000000000000000e+00  0.00000000000000000000e+00  0.00000000000000000000e+00 0
6.31249999999999977796e-01  0.00000000000000000000e+00  0.00000000000000000000e+00  0.00000000000000000000e+00 0
6.37499999999999955591e-01  0.00000000000000000000e+00  0.00000000000000000000e+00  0.00000000000000000000e+00 0
6.43750000000000044409e-01  0.00000000000000000000e+00  0.00000000000000000000e+00  0.00000000000000000000e+00 0
6.50000000000000022204e-01  0.00000000000000000000e+00  0.00000000000000000000e+00  0.00000000000000000000e+00 0
6.56250000000000000000e-01  0.00000000000000000000e+00  0.00000000000000000000e+00  0.00000000000000000000e+00 0
6.62499999999999977796e-01  0.00000000000000000000e+00  0.00000000000000000000e+00  0.00000000000000000000e+00 0
6.68749999999999955591e-01  0.00000000000000000000e+00  0.00000000000000000000e+00  0.00000000000000000000e+00 0
6.75000000000000044409e-01  0.00000000000000000000e+00  0.00000000000000000000e+00  0.00000000000000000000e+00 0
6.81250000000000022204e-01  0.00000000000000000000e+00  0.00000000000000000000e+00  0.00000000000000000000e+00 0
6.87500000000000000000e-01  0.00000000000000000000e+00  0.00000000000000000000e+00  0.00000000000000000000e+00 0
6.93749999999999977796e-01  0.00000000000000000000e+00  0.00000000000000000000e+00  0.00000000000000000000e+00 0
6.99999999999999955591e-01  0.00000000000000000000e+00  0.00000000000000000000e+00  0.00000000000000000000e+00 0
7.06250000000000044409e-01  0.00000000000000000000e+00  0.00000000000000000000e+00  0.00000000000000000000e+00 0
7.12500000000000022204e-01  0.00000000000000000000e+00  0.00000000000000000000e+00  0.00000000000000000000e+00 0
7.18750000000000000000e-01  0.00000000000000000000e+00  0.00000000000000000000e+00  0.00000000000000000000e+00 0
7.24999999999999977796e-01  0.00000000000000000000e+00  0.00000000000000000000e+00  0.00000000000000000000e+00 0
7.31249999999999955591e-01  0.00000000000000000000e+00  0.00000000000000000000e+00  0.00000000000000000000e+00 0
7.37500000000000044409e-01  0.00000000000000000000e+00  0.00000000000000000000e+00  0.00000000000000000000e+00 0
7.43750000000000022204e-01  0.00000000000000000000e+00  0.00000000000000000000e+00  0.00000000000000000000e+00 0
7.50000000000000000000e-01  0.00000000000000000000e+00  0.00000000000000000000e+00  0.00000000000000000000e+00 0
7.56249999999999977796e-01  0.00000000000000000000e+00  0.00000000000000000000e+00  0.00000000000000000000e+00 0
7.62499999999999955591e-01  0.00000000000000000000e+00  0.00000000000000000000e+00  0.00000000000000000000e+00 0
7.68750000000000044409e-01  0.00000000000000000000e+00  0.00000000000000000000e+00  0.00000000000000000000e+00 0
7.75000000000000022204e-01  0.00000000000000000000e+00  0.00000000000000000000e+00  0.00000000000000000000e+00 0
7.81250000000000000000e-01  0.00000000000000000000e+00  0.00000000000000000000e+00  0.00000000000000000000e+00 0
7.87499999999999977796e-01  0.00000000000000000000e+00  0.00000000000000000000e+00  0.00000000000000000000e+00 0
7.93749999999999955591e-01  0.00000000000000000000e+00  0.00000000000000000000e+00  0.00000000000000000000e+00 0
8.00000000000000044409e-01  0.00000000000000000000e+00  0.00000000000000000000e+00  0.00000000000000000000e+00 0
8.06250000000000022204e-01  0.00000000000000000000e+00  0.00000000000000000000e+00  0.00000000000000000000e+00 0
8.12500000000000000000e-01  0.00000000000000000000e+00  0.00000000000000000000e+00  0.00000000000000000000e+00 0
8.18749999999999977796e-01  0.00000000000000000000e+00  0.00000000000000000000e+00  0.00000000000000000000e+00 0
8.24999999999999955591e-01  0.00000000000000000000e+00  0.00000000000000000000e+00  0.00000000000000000000e+00 0
8.31250000000000044409e-01  0.00000000000000000000e+00  0.00000000000000000000e+00  0.00000000000000000000e+00 0
8.37500000000000022204e-01  0.00000000000000000000e+00  0.00000000000000000000e+00  0.00000000000000000000e+00 0
8.43750000000000000000e-01  0.00000000000000000000e+00  0.00000000000000000000e+00  0.00000000000000000000e+00 0
8.49999999999999977796e-01  0.00000000000000000000e+00  0.00000000000000000000e+00  0.00000000000000000000e+00 0
8.56249999999999955591e-01  0.00000000000000000000e+00  0.00000000000000000000e+00  0.00000000000000000000e+00 0
8.62500000000000044409e-01  0.00000000000000000000e+00  0.00000000000000000000e+00  0.00000000000000000000e+00 0
8.68750000000000022204e-01  0.00000000000000000000e+00  0.00000000000000000000e+00  0.00000000000000000000e+00 0
8.75000000000000000000e-01  0.00000000000000000000e+00  0.00000000000000000000e+00  0.00000000000000000000e+00 0
8.81249999999999977796e-01  0.00000000000000000000e+00  0.00000000000000000000e+00  0.00000000000000000000e+00 0
8.87499999999999955591e-01  0.00000000000000000000e+00  0.00000000000000000000e+00  0.00000000000000000000e+00 0
8.93750000000000044409e-01  0.00000000000000000000e+00  0.00000000000000000000e+00  0.00000000000000000000e+00 0
9.00000000000000022204e-01  0.00000000000000000000e+00  0.00000000000000000000e+00  0.00000000000000000000e+00 0
9.06250000000000000000e-01  0.00000000000000000000e+00  0.00000000000000000000e+00  0.00000000000000000000e+00 0
9.12499999999999977796e-01  0.00000000000000000000e+00  0.00000000000000000000e+00  0.00000000000000000000e+00 0
9.18749999999999955591e-01  0.00000000000000000000e+00  0.00000000000000000000e+00  0.00000000000000000000e+00 0
9.25000000000000044409e-01  0.00000000000000000000e+00  0.00000000000000000000e+00  0.00000000000000000000e+00 0
9.31250000000000022204e-01  0.00000000000000000000e+00  0.00000000000000000000e+00  0.00000000000000000000e+00 0
9.37500000000000000000e-01  0.00000000000000000000e+00  0.00000000000000000000e+00  0.00000000000000000000e+00 0
9.43749999999999977796e-01  0.00000000000000000000e+00  0.00000000000000000000e+00  0.00000000000000000000e+00 0
9.49999999999999955591e-01  0.00000000000000000000e+00  0.00000000000000000000e+00  0.00000000000000000000e+00 0
9.56250000000000044409e-01  0.00000000000000000000e+00  0.00000000000000000000e+00  0.00000000000000000000e+00 0
9.62500000000000022204e-01  0.00000000000000000000e+00  0.00000000000000000000e+00  0.00000000000000000000e+00 0
9.68750000000000000000e-01  0.00000000000000000000e+00  0.00000000000000000000e+00  0.00000000000000000000e+00 0
9.74999999999999977796e-01  0.00000000000000000000e+00  0.00000000000000000000e+00  0.00000000000000000000e+00 0
9.81249999999999955591e-01  0.00000000000000000000e+00  0.00000000000000000000e+00  0.00000000000000000000e+00 0
9.87500000000000044409e-01  0.00000000000000000000e+00  0.00000000000000000000e+00  0.00000000000000000000e+00 0
9.93750000000000022204e-01  0.00000000000000000000e+00  0.00000000000000000000e+00  0.00000000000000000000e+00 0
1.00000000000000000000e+00  0.00000000000000000000e+00  0.00000000000000000000e+00  0.00000000000000000000e+00 0
0.00000000000000000000e+00  6.25000000000000034694e-03  0.00000000000000000000e+00  0.00000000000000000000e+00 0
6.25000000000000034694e-03  6.25000000000000034694e-03  3.85537817128054813819e-04  5.59374895222632638470e-08 0
1.25000000000000006939e-02  6.25000000000000034694e-03  7.70910523742462461608e-04  9.53750679809914694851e-08 0
1.87499999999999993061e-02  6.25000000000000034694e-03  1.15597610266558476627e-03  1.24848868105582530563e-07 0
2.50000000000000013878e-02  6.25000000000000034694e-03  1.54058919339691109338e-03  1.47437137407689655699e-07 0
3.12500000000000000000e-02  6.25000000000000034694e-03  1.92460321792277747055e-03  1.64828821937277464338e-07 0
3.74999999999999986122e-02  6.25000000000000034694e-03  2.30787118234073189080e-03  1.78068030912918034980e-07 0
4.37499999999999972244e-02  6.25000000000000034694e-03  2.69024603948463418221e-03  1.87859590349871707904e-07 0
5.00000000000000027756e-02  6.25000000000000034694e-03  3.07158088769487504222e-03  1.94710852072753348718e-07 0
5.62500000000000013878e-02  6.25000000000000034694e-03  3.45172910082316335492e-03  1.99004869525128136321e-07 0
6.25000000000000000000e-02  6.25000000000000034694e-03  3.83054442609654646409e-03  2.01041586941810151989e-07 0
6.87500000000000055511e-02  6.25000000000000034694e-03  4.20788106547472298691e-03  2.01062697799229972428e-07 0
7.49999999999999972244e-02  6.25000000000000034694e-03  4.58359374781539073013e-03  1.99267509070656656522e-07 0
8.12500000000000027756e-02  6.25000000000000034694e-03  4.95753779554811407210e-03  1.95823533457283038839e-07 0
8.74999999999999944489e-02  6.25000000000000034694e-03  5.32956918785415859063e-03  1.90873828695772851383e-07 0
9.37500000000000000000e-02  6.25000000000000034694e-03  5.69954462148951693234e-03  1.84542242659922750558e-07 0
1.00000000000000005551e-01  6.25000000000000034694e-03  6.06732156992627769815e-03  1.76937260855034028673e-07 0
1.06249999999999997224e-01  6.25000000000000034694e-03  6.43275834122718562225e-03  1.68154892467818617430e-07 0
1.12500000000000002776e-01  6.25000000000000034694e-03  6.79571413491462418544e-03  1.58280877395229613303e-07 0
1.18749999999999994449e-01  6.25000000000000034694e-03  7.15604909800147525462e-03  1.47392402787167864364e-07 0
1.25000000000000000000e-01  6.25000000000000034694e-03  7.51362438029180325361e-03  1.35559457980008457589e-07 0
1.31250000000000005551e-01  6.25000000000000034694e-03  7.86830218902092627664e-03  1.22845918198305481539e-07 0
1.37500000000000011102e-01  6.25000000000000034694e-03  8.21994584287876438322e-03  1.09310421539041136008e-07 0
1.43749999999999988898e-01  6.25000000000000034694e-03  8.56841982544292134205e-03  9.50070862051899389655e-08 0
1.49999999999999994449e-01  6.25000000000000034694e-03  8.91358983803587807959e-03  7.99861026648529538363e-08 0
1.56250000000000000000e-01  6.25000000000000034694e-03  9.25532285201209267700e-03  6.42942267203849837642e-08 0
1.62500000000000005551e-01  6.25000000000000034694e-03  9.59348716047519166350e-03  4.79751935886230107542e-08 0
1.68750000000000011102e-01  6.25000000000000034694e-03  9.92795242942004323161e-03  3.10700675985875474083e-08 0
1.74999999999999988898e-01  6.25000000000000034694e-03  1.02585897482925531704e-02  1.36175399203380953495e-08 0
1.81249999999999994449e-01  6.25000000000000034694e-03  1.05852716799570804873e-02  4.34581640985920447662e-09 0
1.87500000000000000000e-01  6.25000000000000034694e-03  1.09078723100589792400e-02  2.27853274928357940610e-08 0
1.93750000000000005551e-01  6.25000000000000034694e-03  1.12262672957704635196e-02  4.16680284408277312735e-08 0
2.00000000000000011102e-01  6.25000000000000034694e-03  1.15403339139045803263e-02  6.09624986533385815335e-08 0
2.06249999999999988898e-01  6.25000000000000034694e-03  1.18499511083835148972e-02  8.06387177327422266515e-08 0
2.12499999999999994449e-01  6.25000000000000034694e-03  1.21549995370459663901e-02  1.00667939120085980775e-07 0
2.18750000000000000000e-01  6.25000000000000034694e-03  1.24553616177777749796e-02  1.21022579218504899856e-07 0
2.25000000000000005551e-01  6.25000000000000034694e-03  1.27509215739508314363e-02  1.41676119259914745641e-07 0
2.31250000000000011102e-01  6.25000000000000034694e-03  1.30415654791544988189e-02  1.62603018201076809923e-07 0
2.37499999999999988898e-01  6.25000000000000034694e-03  1.33271813012029814033e-02  1.83778636005452189472e-07 0
2.43749999999999994449e-01  6.25000000000000034694e-03  1.36076589454046451011e-02  2.05179164358346155517e-07 0
2.50000000000000000000e-01  6.25000000000000034694e-03  1.38828902970760045821e-02  2.26781565457190303903e-07 0
2.56249999999999977796e-01  6.25000000000000034694e-03  1.41527692632859147109e-02  2.48563516973970832780e-07 0
2.62500000000000011102e-01  6.25000000000000034694e-03  1.44171918138145220556e-02  2.70503362551424708649e-07 0
2.68749999999999988898e-01  6.25000000000000034694e-03  1.46760560213115964084e-02  2.92580067444425662160e-07 0
2.75000000000000022204e-01  6.25000000000000034694e-03  1.49292621006397764616e-02  3.14773178335114867110e-07 0
2.81250000000000000000e-01  6.25000000000000034694e-03  1.51767124473875612140e-02  3.37062787273204045313e-07 0
2.87499999999999977796e-01  6.25000000000000034694e-03  1.54183116755381953433e-02  3.59429498841129513309e-07 0
2.93750000000000011102e-01  6.25000000000000034694e-03  1.56539666542799618676e-02  3.81854400464259891024e-07 0
2.99999999999999988898e-01  6.25000000000000034694e-03  1.58835865439440684921e-02  4.04319035505334989367e-07 0
3.06250000000000022204e-01  6.25000000000000034694e-03  1.61070828310566314945e-02  4.26805378820477310242e-07 0
3.12500000000000000000e-01  6.25000000000000034694e-03  1.63243693624918057017e-02  4.49295814212991029279e-07 0
3.18749999999999977796e-01  6.25000000000000034694e-03  1.65353623787122400168e-02  4.71773114435469764771e-07 0
3.25000000000000011102e-01  6.25000000000000034694e-03  1.67399805460854769756e-02  4.94220422336821840759e-07 0
3.31249999999999988898e-01  6.25000000000000034694e-03  1.69381449882629701864e-02  5.16621233986880312727e-07 0
3.37500000000000022204e-01  6.25000000000000034694e-03  1.71297793166102739482e-02  5.38959383199200114944e-07 0
3.43750000000000000000e-01  6.25000000000000034694e-03  1.73148096596769662803e-02  5.61219027108567081186e-07 0
3.49999999999999977796e-01  6.25000000000000034694e-03  1.74931646916943982217e-02  5.83384633386085926787e-07 0
3.56250000000000011102e-01  6.25000000000000034694e-03  1.76647756600915792347e-02  6.05440967773457350276e-07 0
3.62499999999999988898e-01  6.25000000000000034694e-03  1.78295764120170070755e-02  6.27373083546267640287e-07 0
3.68750000000000022204e-01  6.25000000000000034694e-03  1.79875034198584173029e-02  6.49166310741355889746e-07 0
3.75000000000000000000e-01  6.25000000000000034694e-03  1.81384958057482607863e-02  6.70806247389521548286e-07 0
3.81249999999999977796e-01  6.25000000000000034694e-03  1.82824953650481611400e-02  6.92278750234753825765e-07 0
3.87500000000000011102e-01  6.25000000000000034694e-03  1.84194465888010590338e-02  7.13569927011242777226e-07 0
3.93749999999999988898e-01  6.25000000000000034694e-03  1.85492966851438373377e-02  7.34666128935496098862e-07 0
4.00000000000000022204e-01  6.25000000000000034694e-03  1.86719955996721559410e-02  7.55553943417031081964e-07 0
4.06250000000000000000e-01  6.25000000000000034694e-03  1.87874960347483126177e-02  7.76220188271337097063e-07 0
4.12499999999999977796e-01  6.25000000000000034694e-03  1.88957534677474080220e-02  7.96651904794859477832e-07 0
4.18750000000000011102e-01  6.25000000000000034694e-03  1.89967261682316181093e-02  8.16836352800220932835e-07 0
4.24999999999999988898e-01  6.25000000000000034694e-03  1.90903752140486951405e-02  8.36761004908981309569e-07 0
4.31250000000000022204e-01  6.25000000000000034694e-03  1.91766645063470748955e-02  8.56413541496653385465e-07 0
4.37500000000000000000e-01  6.25000000000000034694e-03  1.92555607835019453045e-02  8.75781846172013489493e-07 0
4.43749999999999977796e-01  6.25000000000000034694e-03  1.93270336339476586640e-02  8.94854001037836965793e-07 0
4.50000000000000011102e-01  6.25000000000000034694e-03  1.93910555079108946896e-02  9.13618282340211695924e-07 0
4.56249999999999988898e-01  6.25000000000000034694e-03  1.94476017280401682064e-02  9.32063156443979634602e-07 0
4.62500000000000022204e-01  6.25000000000000034694e-03  1.94966504989280316196e-02  9.50177275683278255158e-07 0
4.68750000000000000000e-01  6.25000000000000034694e-03  1.95381829155216388272e-02  9.67949474708212909135e-07 0
4.74999999999999977796e-01  6.25000000000000034694e-03  1.95721829704195680877e-02  9.85368766213967628431e-07 0
4.81250000000000011102e-01  6.25000000000000034694e-03  1.95986375600503970329e-02  1.00242433776973061121e-06 0
4.87499999999999988898e-01  6.25000000000000034694e-03  1.96175364897326273694e-02  1.01910554773515515947e-06 0
4.93750000000000022204e-01  6.25000000000000034694e-03  1.96288724776125869664e-02  1.03540192171458489412e-06 0
5.00000000000000000000e-01  6.25000000000000034694e-03  1.96326411574791921677e-02  1.05130314910842348475e-06 0
5.06249999999999977796e-01  6.25000000000000034694e-03  1.96288410804551886890e-02  1.06679907911286231403e-06 0
5.12499999999999955591e-01  6.25000000000000034694e-03  1.96174737155630773966e-02  1.08187971728512799530e-06 0
5.18750000000000044409e-01  6.25000000000000034694e-03  1.95985434491666513090e-02  1.09653522151545446128e-06 0
5.25000000000000022204e-01  6.25000000000000034694e-03  1.95720575832872591138e-02  1.11075589852294154269e-06 0
5.31250000000000000000e-01  6.25000000000000034694e-03  1.95380263327968976828e-02  1.12453219945282678616e-06 0
5.37499999999999977796e-01  6.25000000000000034694e-03  1.94964628214872627565e-02  1.13785471645214131264e-06 0
5.43749999999999955591e-01  6.25000000000000034694e-03  1.94473830770190009298e-02  1.15071417761125616153e-06 0
5.50000000000000044409e-01  6.25000000000000034694e-03  1.93908060247499659801e-02  1.16310144326545183979e-06 0
5.56250000000000022204e-01  6.25000000000000034694e-03  1.93267534804475310528e-02  1.17500750116544816493e-06 0
5.62500000000000000000e-01  6.25000000000000034694e-03  1.92552501418865075478e-02  1.18642346160977019132e-06 0
5.68749999999999977796e-01  6.25000000000000034694e-03  1.91763235793361297432e-02  1.19734055244180570554e-06 0
5.74999999999999955591e-01  6.25000000000000034694e-03  1.90900042249396474647e-02  1.20775011395665710090e-06 0
5.81250000000000044409e-01  6.25000000000000034694e-03  1.89963253609914846376e-02  1.21764359293369262005e-06 0
5.87500000000000022204e-01  6.25000000000000034694e-03  1.88953231071150480613e-02  1.22701253715482017093e-06 0
5.93750000000000000000e-01  6.25000000000000034694e-03  1.87870364063479344807e-02  1.23584858864947411128e-06 0
5.99999999999999977796e-01  6.25000000000000034694e-03  1.86715070101379325418e-02  1.24414347764043031752e-06 0
6.06249999999999955591e-01  6.25000000000000034694e-03  1.85487794622578409942e-02  1.25188901493530901909e-06 0
6.12500000000000044409e-01  6.25000000000000034694e-03  1.84189010816432942319e-02  1.25907708477257518354e-06 0
6.18750000000000022204e-01  6.25000000000000034694e-03  1.82819219441619010280e-02  1.26569963649486583179e-06 0
6.25000000000000000000e-01  6.25000000000000034694e-03  1.81378948633192718654e-02  1.27174867637844246637e-06 0
6.31249999999999977796e-01  6.25000000000000034694e-03  1.79868753699110248134e-02  1.27721625813384531689e-06 0
6.37499999999999955591e-01  6.25000000000000034694e-03  1.78289216906272370011e-02  1.28209447331981141183e-06 0