Titile = 'Poisson'  
VARIABLES = X, Y, U, Error, Rank 
zone N= 3381, E = 6400
DATAPACKING=POINT, ZONETYPE=FETRIANGLE
0.00000000000000000000e+00  2.50000000000000000000e-01  0.00000000000000000000e+00  0.00000000000000000000e+00 2
6.25000000000000034694e-03  2.50000000000000000000e-01  1.38828902970759525404e-02  2.26781565509232008182e-07 2
1.25000000000000006939e-02  2.50000000000000000000e-01  2.77604057908157654533e-02  4.76160556130145184994e-07 2
1.87499999999999993061e-02  2.50000000000000000000e-01  4.16271970952489661633e-02  7.47380408554210173833e-07 2
2.50000000000000013878e-02  2.50000000000000000000e-01  5.54779189490334986856e-02  1.03968589013764267648e-06 2
3.12500000000000000000e-02  2.50000000000000000000e-01  6.93072322757894709877e-02  1.35232375625404799280e-06 2
3.74999999999999986122e-02  2.50000000000000000000e-01  8.31098062420577432530e-02  1.68454339771750838395e-06 2
4.37499999999999972244e-02  2.50000000000000000000e-01  9.68803203120971595519e-02  2.03559747068149388127e-06 2
5.00000000000000027756e-02  2.50000000000000000000e-01  1.10613466298728244097e-01  2.40474250889910479145e-06 2
5.62500000000000013878e-02  2.50000000000000000000e-01  1.24303950409442073854e-01  2.79123950858162217514e-06 2
6.25000000000000000000e-02  2.50000000000000000000e-01  1.37946495286979581296e-01  3.19435449189220399546e-06 2
6.87500000000000055511e-02  2.50000000000000000000e-01  1.51535842043609370045e-01  3.61335903378834366606e-06 2
7.49999999999999972244e-02  2.50000000000000000000e-01  1.65066752288308887797e-01  4.04753076277408752048e-06 2
8.12500000000000027756e-02  2.50000000000000000000e-01  1.78534010146079696879e-01  4.49615382389079165648e-06 2
8.74999999999999944489e-02  2.50000000000000000000e-01  1.91932424268612789042e-01  4.95851930829016573909e-06 2
9.37500000000000000000e-02  2.50000000000000000000e-01  2.05256829835531978690e-01  5.43392564666955735220e-06 2
1.00000000000000005551e-01  2.50000000000000000000e-01  2.18502090545444199732e-01  5.92167896629192114233e-06 2
1.06249999999999997224e-01  2.50000000000000000000e-01  2.31663100596028487255e-01  6.42109341117413912059e-06 2
1.12500000000000002776e-01  2.50000000000000000000e-01  2.44734786652399810558e-01  6.93149142677595975215e-06 2
1.18749999999999994449e-01  2.50000000000000000000e-01  2.57712109802984201679e-01  7.45220401321411429763e-06 2
1.25000000000000000000e-01  2.50000000000000000000e-01  2.70590067502158027057e-01  7.98257094042353898544e-06 2
1.31250000000000005551e-01  2.50000000000000000000e-01  2.83363695498894507807e-01  8.52194093242664152399e-06 2
1.37500000000000011102e-01  2.50000000000000000000e-01  2.96028069750671030125e-01  9.06967182456863696416e-06 2
1.43749999999999988898e-01  2.50000000000000000000e-01  3.08578308321908634237e-01  9.62513068353265666133e-06 2
1.49999999999999994449e-01  2.50000000000000000000e-01  3.21009573266187564489e-01  1.01876939154754708738e-05 2
1.56250000000000000000e-01  2.50000000000000000000e-01  3.33317072491543242574e-01  1.07567473299763349814e-05 2
1.62500000000000005551e-01  2.50000000000000000000e-01  3.45496061608089377604e-01  1.13316861971024529510e-05 2
1.68750000000000011102e-01  2.50000000000000000000e-01  3.57541845757274046047e-01  1.19119152768298874889e-05 2
1.74999999999999988898e-01  2.50000000000000000000e-01  3.69449781422058975977e-01  1.24968488265375654578e-05 2
1.81249999999999994449e-01  2.50000000000000000000e-01  3.81215278217307329545e-01  1.30859106034497685300e-05 2
1.87500000000000000000e-01  2.50000000000000000000e-01  3.92833800659719789561e-01  1.36785338312184201470e-05 2
1.93750000000000005551e-01  2.50000000000000000000e-01  4.04300869916593141884e-01  1.42741611753871566748e-05 2
2.00000000000000011102e-01  2.50000000000000000000e-01  4.15612065532761087994e-01  1.48722446923210682712e-05 2
2.06249999999999988898e-01  2.50000000000000000000e-01  4.26763027135029282544e-01  1.54722457753053710405e-05 2
2.12499999999999994449e-01  2.50000000000000000000e-01  4.37749456113460222451e-01  1.60736350840462449696e-05 2
2.18750000000000000000e-01  2.50000000000000000000e-01  4.48567117278840854500e-01  1.66758924772247851820e-05 2
2.25000000000000005551e-01  2.50000000000000000000e-01  4.59211840495710066357e-01  1.72785069313952099890e-05 2
2.31250000000000011102e-01  2.50000000000000000000e-01  4.69679522290308293364e-01  1.78809764551091099349e-05 2
2.37499999999999988898e-01  2.50000000000000000000e-01  4.79966127432822631249e-01  1.84828080044274756233e-05 2
2.43749999999999994449e-01  2.50000000000000000000e-01  4.90067690493329322088e-01  1.90835173888848075308e-05 2
2.50000000000000000000e-01  2.50000000000000000000e-01  4.99980317370821991663e-01  1.96826291778973150315e-05 2
2.56249999999999977796e-01  2.50000000000000000000e-01  5.09700186794739273921e-01  2.02796766072266265724e-05 2
2.62500000000000011102e-01  2.50000000000000000000e-01  5.19223551798410398739e-01  2.08742014853324775459e-05 2
2.68749999999999988898e-01  2.50000000000000000000e-01  5.28546741163862798807e-01  2.14657540895668574876e-05 2
2.75000000000000022204e-01  2.50000000000000000000e-01  5.37666160837406370554e-01  2.20538930800762145168e-05 2
2.81250000000000000000e-01  2.50000000000000000000e-01  5.46578295315482187711e-01  2.26381853964952028946e-05 2
2.87499999999999977796e-01  2.50000000000000000000e-01  5.55279709000212728931e-01  2.32182061691288410543e-05 2
2.93750000000000011102e-01  2.50000000000000000000e-01  5.63767047524152853377e-01  2.37935386196985731999e-05 2
2.99999999999999988898e-01  2.50000000000000000000e-01  5.72037039043706840857e-01  2.43637739774094086442e-05 2
3.06250000000000022204e-01  2.50000000000000000000e-01  5.80086495500742649334e-01  2.49285113804731395248e-05 2
3.12500000000000000000e-01  2.50000000000000000000e-01  5.87912313851884471561e-01  2.54873577948400154014e-05 2
3.18749999999999977796e-01  2.50000000000000000000e-01  5.95511477265033062345e-01  2.60399279283785034522e-05 2
3.25000000000000011102e-01  2.50000000000000000000e-01  6.02881056282656424550e-01  2.65858441345079299367e-05 2
3.31249999999999988898e-01  2.50000000000000000000e-01  6.10018209951360357302e-01  2.71247363483606562795e-05 2
3.37500000000000022204e-01  2.50000000000000000000e-01  6.16920186917368940094e-01  2.76562419917469881625e-05 2
3.43750000000000000000e-01  2.50000000000000000000e-01  6.23584326487434337238e-01  2.81800059012127235292e-05 2
3.49999999999999977796e-01  2.50000000000000000000e-01  6.30008059654799001947e-01  2.86956802514337638854e-05 2
3.56250000000000011102e-01  2.50000000000000000000e-01  6.36188910089805048642e-01  2.92029244807201493472e-05 2
3.62499999999999988898e-01  2.50000000000000000000e-01  6.42124495094776093218e-01  2.97014052124122684972e-05 2
3.68750000000000022204e-01  2.50000000000000000000e-01  6.47812526522776099824e-01  3.01907962004799301781e-05 2
3.75000000000000000000e-01  2.50000000000000000000e-01  6.53250811659952912436e-01  3.06707782352644287016e-05 2
3.81249999999999977796e-01  2.50000000000000000000e-01  6.58437254071038369219e-01  3.11410390999578012838e-05 2
3.87500000000000011102e-01  2.50000000000000000000e-01  6.63369854407763637205e-01  3.16012734909998371791e-05 2
3.93749999999999988898e-01  2.50000000000000000000e-01  6.68046711179827390481e-01  3.20511829542402537641e-05 2
4.00000000000000022204e-01  2.50000000000000000000e-01  6.72466021488132170703e-01  3.24904758250976755107e-05 2
4.06250000000000000000e-01  2.50000000000000000000e-01  6.76626081720017036325e-01  3.29188671592817172495e-05 2
4.12499999999999977796e-01  2.50000000000000000000e-01  6.80525288206198730734e-01  3.33360786772818329382e-05 2
4.18750000000000011102e-01  2.50000000000000000000e-01  6.84162137839192996402e-01  3.37418386950893989251e-05 2
4.24999999999999988898e-01  2.50000000000000000000e-01  6.87535228652949803596e-01  3.41358820706849641624e-05 2
4.31250000000000022204e-01  2.50000000000000000000e-01  6.90643260363509314814e-01  3.45179501340941996546e-05 2
4.37500000000000000000e-01  2.50000000000000000000e-01  6.93485034870437999643e-01  3.48877906356515055109e-05 2
4.43749999999999977796e-01  2.50000000000000000000e-01  6.96059456718884472792e-01  3.52451576783874287457e-05 2
4.50000000000000011102e-01  2.50000000000000000000e-01  6.98365533522053882898e-01  3.55898116564112854121e-05 2
4.56249999999999988898e-01  2.50000000000000000000e-01  7.00402376343936539094e-01  3.59215192027306784439e-05 2
4.62500000000000022204e-01  2.50000000000000000000e-01  7.02169200042181973487e-01  3.62400531074280607413e-05 2
4.68750000000000000000e-01  2.50000000000000000000e-01  7.03665323570910383744e-01  3.65451922806903084506e-05 2
4.74999999999999977796e-01  2.50000000000000000000e-01  7.04890170243445912668e-01  3.68367216613263437353e-05 2
4.81250000000000011102e-01  2.50000000000000000000e-01  7.05843267954763708971e-01  3.71144321754668382596e-05 2
4.87499999999999988898e-01  2.50000000000000000000e-01  7.06524249363662204537e-01  3.73781206512990848978e-05 2
4.93750000000000022204e-01  2.50000000000000000000e-01  7.06932852034512726469e-01  3.76275897645550472248e-05 2
5.00000000000000000000e-01  2.50000000000000000000e-01  7.07068918538588664369e-01  3.78626479587973463481e-05 2
5.06249999999999977796e-01  2.50000000000000000000e-01  7.06932396514896033146e-01  3.80831093812483700844e-05 2
5.12499999999999955591e-01  2.50000000000000000000e-01  7.06523338690506652604e-01  3.82887938068510180756e-05 2
5.18750000000000044409e-01  2.50000000000000000000e-01  7.05841902860380288054e-01  3.84795265588877555274e-05 2
5.25000000000000022204e-01  2.50000000000000000000e-01  7.04888351826668868583e-01  3.86551384383704288439e-05 2
5.31250000000000000000e-01  2.50000000000000000000e-01  7.03663053297551632781e-01  3.88154656395522934531e-05 2
5.37499999999999977796e-01  2.50000000000000000000e-01  7.02166479745628513420e-01  3.89603496608881272323e-05 2
5.43749999999999955591e-01  2.50000000000000000000e-01  7.00399208225908509462e-01  3.90896372307603101603e-05 2
5.50000000000000044409e-01  2.50000000000000000000e-01  6.98361920153503734632e-01  3.92031802064485290771e-05 2
5.56250000000000022204e-01  2.50000000000000000000e-01  6.96055401041063892542e-01  3.93008354989676789160e-05 2
5.62500000000000000000e-01  2.50000000000000000000e-01  6.93480540196120265328e-01  3.93824649533858206496e-05 2
5.68749999999999977796e-01  2.50000000000000000000e-01  6.90638330378375076002e-01  3.94479352683330120044e-05 2
5.74999999999999955591e-01  2.50000000000000000000e-01  6.87529867417129625373e-01  3.94971178908631870286e-05 2
5.81250000000000044409e-01  2.50000000000000000000e-01  6.84156349788987871996e-01  3.95298889002138054138e-05 2
5.87500000000000022204e-01  2.50000000000000000000e-01  6.80519078155970569277e-01  3.95461289054432896251e-05 2
5.93750000000000000000e-01  2.50000000000000000000e-01  6.76619454864242575454e-01  3.95457229337425886229e-05 2
5.99999999999999977796e-01  2.50000000000000000000e-01  6.72458983403657506450e-01  3.95285602997619278653e-05 2
6.06249999999999955591e-01  2.50000000000000000000e-01  6.68039267828288596540e-01  3.94945344931452169135e-05 2
6.12500000000000044409e-01  2.50000000000000000000e-01  6.63362012138212886470e-01  3.94435430416395504949e-05 2
6.18750000000000022204e-01  2.50000000000000000000e-01  6.58429019622749800433e-01  3.93754873886376088876e-05 2
6.25000000000000000000e-01  2.50000000000000000000e-01  6.53242192165440438423e-01  3.92902727477384416943e-05 2
6.31249999999999977796e-01  2.50000000000000000000e-01  6.47803529511015940834e-01  3.91878079606389206901e-05 2
6.37499999999999955591e-01  2.50000000000000000000e-01  6.42115128494639142431e-01  3.90680053494740775477e-05 2
6.43750000000000044409e-01  2.50000000000000000000e-01  6.36179182233715390105e-01  3.89307805702676645865e-05 2
6.50000000000000022204e-01  2.50000000000000000000e-01  6.29997979282604703144e-01  3.87760524457325672643e-05 2
6.56250000000000000000e-01  2.50000000000000000000e-01  6.23573902750531927630e-01  3.86037428036223317918e-05 2
6.62499999999999977796e-01  2.50000000000000000000e-01  6.16909429383044050077e-01  3.84137763167480272841e-05 2
6.68749999999999955591e-01  2.50000000000000000000e-01  6.10007128607394921715e-01  3.82060803140182869697e-05 2
6.75000000000000044409e-01  2.50000000000000000000e-01  6.02869661542181356495e-01  3.79805846096870070028e-05 2
6.81250000000000022204e-01  2.50000000000000000000e-01  5.95499779971653486754e-01  3.77372213080651164319e-05 2
6.87500000000000000000e-01  2.50000000000000000000e-01  5.87900325285052871571e-01  3.74759246265510270746e-05 2
6.93749999999999977796e-01  2.50000000000000000000e-01  5.80074227381434659456e-01  3.71966306884630171226e-05 2
6.99999999999999955591e-01  2.50000000000000000000e-01  5.72024503540374040789e-01  3.68992773102094773208e-05 2
7.06250000000000044409e-01  2.50000000000000000000e-01  5.63754257258961999355e-01  3.65838038105525953370e-05 2
7.12500000000000022204e-01  2.50000000000000000000e-01  5.55266677055587742906e-01  3.62501507941148659597e-05 2
7.18750000000000000000e-01  2.50000000000000000000e-01  5.46565035240964225416e-01  3.58982599145685199460e-05 2
7.24999999999999977796e-01  2.50000000000000000000e-01  5.37652686656822864641e-01  3.55280736635821270397e-05 2
7.31249999999999955591e-01  2.50000000000000000000e-01  5.28533067382808807722e-01  3.51395351437799874361e-05 2
7.37500000000000044409e-01  2.50000000000000000000e-01  5.19209693412072237351e-01  3.47325878233828433395e-05 2
7.43750000000000022204e-01  2.50000000000000000000e-01  5.09686159296048324485e-01  3.43071752982870847859e-05 2
7.50000000000000000000e-01  2.50000000000000000000e-01  4.99966136758944745822e-01  3.38632410552541784909e-05 2
7.56249999999999977796e-01  2.50000000000000000000e-01  4.90053373282499760144e-01  3.34007282184467513275e-05 2
7.62499999999999955591e-01  2.50000000000000000000e-01  4.79951690661524432713e-01  3.29195793028480565567e-05 2
7.68750000000000044409e-01  2.50000000000000000000e-01  4.69664983530811819268e-01  3.24197359514166727479e-05 2
7.75000000000000022204e-01  2.50000000000000000000e-01  4.59197217863947515504e-01  3.19011386940570851323e-05 2
7.81250000000000000000e-01  2.50000000000000000000e-01  4.48552429444641631573e-01  3.13637266764477118386e-05 2
7.87499999999999977796e-01  2.50000000000000000000e-01  4.37734722311131585482e-01  3.08074374128497474601e-05 2
7.93749999999999955591e-01  2.50000000000000000000e-01  4.26748267174289819259e-01  3.02322065148241669874e-05 2
8.00000000000000044409e-01  2.50000000000000000000e-01  4.15597299809997933195e-01  2.96379674555313776807e-05 2
8.06250000000000022204e-01  2.50000000000000000000e-01  4.04286119426470746951e-01  2.90246512977820891876e-05 2
8.12500000000000000000e-01  2.50000000000000000000e-01  3.92819087007101108711e-01  2.83921864498992704284e-05 2
8.18749999999999977796e-01  2.50000000000000000000e-01  3.81200623629488311028e-01  2.77404984226348183540e-05 2
8.24999999999999955591e-01  2.50000000000000000000e-01  3.69435208761299871405e-01  2.70695095856976486459e-05 2
8.31250000000000044409e-01  2.50000000000000000000e-01  3.57527378533609607736e-01  2.63791389412681986926e-05 2
8.37500000000000022204e-01  2.50000000000000000000e-01  3.45481723992395128864e-01  2.56693018912956816280e-05 2
8.43750000000000000000e-01  2.50000000000000000000e-01  3.33302889328827622872e-01  2.49399100457625699789e-05 2
8.49999999999999977796e-01  2.50000000000000000000e-01  3.20995570089097459476e-01  2.41908710056359943508e-05 2
8.56249999999999955591e-01  2.50000000000000000000e-01  3.08564511364400551052e-01  2.34220881919489087863e-05 2
8.62500000000000044409e-01  2.50000000000000000000e-01  2.96014505961819662794e-01  2.26334606758249456959e-05 2
8.68750000000000022204e-01  2.50000000000000000000e-01  2.83350392556798114096e-01  2.18248830289868855914e-05 2
8.75000000000000000000e-01  2.50000000000000000000e-01  2.70577053827894209448e-01  2.09962452043521707878e-05 2
8.81249999999999977796e-01  2.50000000000000000000e-01  2.57699414574566632030e-01  2.01474324307837626691e-05 2
8.87499999999999955591e-01  2.50000000000000000000e-01  2.44722439818695708391e-01  1.92783251311001713191e-05 2
8.93750000000000044409e-01  2.50000000000000000000e-01  2.31651132890563576927e-01  1.83887988759456888488e-05 2
9.00000000000000022204e-01  2.50000000000000000000e-01  2.18490533500044964432e-01  1.74787243656104873679e-05 2
9.06250000000000000000e-01  2.50000000000000000000e-01  2.05245715793749644584e-01  1.65479674290314182628e-05 2
9.12499999999999977796e-01  2.50000000000000000000e-01  1.91921786398848492894e-01  1.55963890728083587334e-05 2
9.18749999999999955591e-01  2.50000000000000000000e-01  1.78523882454350524274e-01  1.46238455532299305162e-05 2
9.25000000000000044409e-01  2.50000000000000000000e-01  1.65057169630583699949e-01  1.36301884880452028881e-05 2
9.31250000000000022204e-01  2.50000000000000000000e-01  1.51526840137650775642e-01  1.26152649923549908806e-05 2
9.37500000000000000000e-01  2.50000000000000000000e-01  1.37938110723605678043e-01  1.15789178660452574121e-05 2
9.43749999999999977796e-01  2.50000000000000000000e-01  1.24296220663145801089e-01  1.05209858050209215108e-05 2
9.49999999999999955591e-01  2.50000000000000000000e-01  1.10606429737594366691e-01  9.44130364284589962409e-06 2
9.56250000000000044409e-01  2.50000000000000000000e-01  9.68740162069250260179e-02  8.33970264282890560992e-06 2
9.62500000000000022204e-01  2.50000000000000000000e-01  8.31042747746539578468e-02  7.21601080143352557883e-06 2
9.68750000000000000000e-01  2.50000000000000000000e-01  6.93025145463483926989e-02  6.07005319748499250210e-06 2
9.74999999999999977796e-01  2.50000000000000000000e-01  5.54740569825750567956e-02  4.90165234866973831274e-06 2
9.81249999999999955591e-01  2.50000000000000000000e-01  4.16242338470417180818e-02  3.71062861612841965453e-06 2
9.87500000000000044409e-01  2.50000000000000000000e-01  2.77583851507631623745e-02  2.49680060866036557243e-06 2
9.93750000000000022204e-01  2.50000000000000000000e-01  1.38818570930360762894e-02  1.25998560555028171759e-06 2
1.00000000000000000000e+00  2.50000000000000000000e-01  0.00000000000000000000e+00  8.65956056235493162558e-17 2
0.00000000000000000000e+00  2.56249999999999977796e-01  0.00000000000000000000e+00  0.00000000000000000000e+00 2
6.25000000000000034694e-03  2.56249999999999977796e-01  1.41527692632858262400e-02  2.48563517062441730054e-07 2
1.25000000000000006939e-02  2.56249999999999977796e-01  2.83000601237967941426e-02  5.19272021742844813730e-07 2
1.87499999999999993061e-02  2.56249999999999977796e-01  4.24364191732420834025e-02  8.11379508851295394578e-07 2
2.50000000000000013878e-02  2.56249999999999977796e-01  5.65563972082602436919e-02  1.12414121538478850582e-06 2
3.12500000000000000000e-02  2.56249999999999977796e-01  7.06545513308634437477e-02  1.45681423502352913601e-06 2
3.74999999999999986122e-02  2.56249999999999977796e-01  8.47254470464582909450e-02  1.80865812446362461685e-06 2
4.37499999999999972244e-02  2.56249999999999977796e-01  9.87636603586418415635e-02  2.17893549403491704197e-06 2
5.00000000000000027756e-02  2.56249999999999977796e-01  1.12763779859964247132e-01  2.56691258317121029364e-06 2
5.62500000000000013878e-02  2.56249999999999977796e-01  1.26720408817860591411e-01  2.97185981198988535823e-06 2
6.25000000000000000000e-02  2.56249999999999977796e-01  1.40628167254942731956e-01  3.39305231392139639013e-06 2
6.87500000000000055511e-02  2.56249999999999977796e-01  1.54481694022863297322e-01  3.82977043489329815884e-06 2
7.49999999999999972244e-02  2.56249999999999977796e-01  1.68275648868938781932e-01  4.28130021215555878200e-06 2
8.12500000000000027756e-02  2.56249999999999977796e-01  1.82004714494752917187e-01  4.74693381569135652853e-06 2
8.74999999999999944489e-02  2.56249999999999977796e-01  1.95663598605931993157e-01  5.22596996507806998977e-06 2
9.37500000000000000000e-02  2.56249999999999977796e-01  2.09247035952319498930e-01  5.71771430560308324687e-06 2
1.00000000000000005551e-01  2.56249999999999977796e-01  2.22749790357746252356e-01  6.22147976017672910132e-06 2
1.06249999999999997224e-01  2.56249999999999977796e-01  2.36166656738625607703e-01  6.73658684421929443431e-06 2
1.12500000000000002776e-01  2.56249999999999977796e-01  2.49492463110593198916e-01  7.26236394701929022233e-06 2
1.18749999999999994449e-01  2.56249999999999977796e-01  2.62722072582408927577e-01  7.79814758677943586918e-06 2
1.25000000000000000000e-01  2.56249999999999977796e-01  2.75850385336365133693e-01  8.34328262794281627635e-06 2
1.31250000000000005551e-01  2.56249999999999977796e-01  2.88872340594422682969e-01  8.89712247414964352288e-06 2
1.37500000000000011102e-01  2.56249999999999977796e-01  3.01782918569322211599e-01  9.45902923282782026604e-06 2
1.43749999999999988898e-01  2.56249999999999977796e-01  3.14577142399920794968e-01  1.00283738475037687010e-05 2
1.49999999999999994449e-01  2.56249999999999977796e-01  3.27250080069995785692e-01  1.06045362119888686436e-05 2
1.56250000000000000000e-01  2.56249999999999977796e-01  3.39796846309782740736e-01  1.11869052568658311486e-05 2
1.62500000000000005551e-01  2.56249999999999977796e-01  3.52212604479509028277e-01  1.17748790163241245921e-05 2
1.68750000000000011102e-01  2.56249999999999977796e-01  3.64492568434198305205e-01  1.23678646725688956565e-05 2
1.74999999999999988898e-01  2.56249999999999977796e-01  3.76632004369018391632e-01  1.29652785860190356004e-05 2
1.81249999999999994449e-01  2.56249999999999977796e-01  3.88626232644471547584e-01  1.35665463025236299188e-05 2
1.87500000000000000000e-01  2.56249999999999977796e-01  4.00470629590708004919e-01  1.41711025508639565373e-05 2
1.93750000000000005551e-01  2.56249999999999977796e-01  4.12160629290269642233e-01  1.47783912300969433318e-05 2
2.00000000000000011102e-01  2.56249999999999977796e-01  4.23691725338587843464e-01  1.53878653739170090375e-05 2
2.06249999999999988898e-01  2.56249999999999977796e-01  4.35059472581532380442e-01  1.59989871176269282671e-05 2
2.12499999999999994449e-01  2.56249999999999977796e-01  4.46259488829364114881e-01  1.66112276441254813619e-05 2
2.18750000000000000000e-01  2.56249999999999977796e-01  4.57287456546408288549e-01  1.72240671323375948987e-05 2
2.25000000000000005551e-01  2.56249999999999977796e-01  4.68139124515809579297e-01  1.78369946942646961929e-05 2
2.31250000000000011102e-01  2.56249999999999977796e-01  4.78810309478724605015e-01  1.84495083050406627478e-05 2
2.37499999999999988898e-01  2.56249999999999977796e-01  4.89296897747310943760e-01  1.90611147327657270978e-05 2
2.43749999999999994449e-01  2.56249999999999977796e-01  4.99594846790901547795e-01  1.96713294598471755137e-05 2
2.50000000000000000000e-01  2.56249999999999977796e-01  5.09700186794738496765e-01  2.02796766080037826896e-05 2
2.56249999999999977796e-01  2.56249999999999977796e-01  5.19609022190681058007e-01  2.08856888531672169051e-05 2
2.62500000000000011102e-01  2.56249999999999977796e-01  5.29317533159277764376e-01  2.14889073490986959314e-05 2
2.68749999999999988898e-01  2.56249999999999977796e-01  5.38821977102648674851e-01  2.20888816351294536844e-05 2
2.75000000000000022204e-01  2.56249999999999977796e-01  5.48118690087578297465e-01  2.26851695599439295847e-05 2
2.81250000000000000000e-01  2.56249999999999977796e-01  5.57204088258287932867e-01  2.32773371948713503343e-05 2
2.87499999999999977796e-01  2.56249999999999977796e-01  5.66074669218328052622e-01  2.38649587542827390507e-05 2
2.93750000000000011102e-01  2.56249999999999977796e-01  5.74727013381074347542e-01  2.44476165041085380381e-05 2
2.99999999999999988898e-01  2.56249999999999977796e-01  5.83157785288273777802e-01  2.50249006920055805381e-05 2
3.06250000000000022204e-01  2.56249999999999977796e-01  5.91363734896176773681e-01  2.55964094562077804085e-05 2
3.12500000000000000000e-01  2.56249999999999977796e-01  5.99341698828721236580e-01  2.61617487499199441459e-05 2
3.18749999999999977796e-01  2.56249999999999977796e-01  6.07088601597296606549e-01  2.67205322711516757295e-05 2
3.25000000000000011102e-01  2.56249999999999977796e-01  6.14601456786645461428e-01  2.72723813696806871576e-05 2
3.31249999999999988898e-01  2.56249999999999977796e-01  6.21877368206385172655e-01  2.78169249900983572843e-05 2
3.37500000000000022204e-01  2.56249999999999977796e-01  6.28913531007774806447e-01  2.83537995862115366208e-05 2
3.43750000000000000000e-01  2.56249999999999977796e-01  6.35707232765242880035e-01  2.88826490543181435555e-05 2
3.49999999999999977796e-01  2.56249999999999977796e-01  6.42255854522290281494e-01  2.94031246608206231485e-05 2
3.56250000000000011102e-01  2.56249999999999977796e-01  6.48556871801343914896e-01  2.99148849792763016353e-05 2
3.62499999999999988898e-01  2.56249999999999977796e-01  6.54607855577199249097e-01  3.04175958144581315423e-05 2
3.68750000000000022204e-01  2.56249999999999977796e-01  6.60406473213640987652e-01  3.09109301459553620361e-05 2
3.75000000000000000000e-01  2.56249999999999977796e-01  6.65950489362921782543e-01  3.13945680503469048972e-05 2
3.81249999999999977796e-01  2.56249999999999977796e-01  6.71237766827698201233e-01  3.18681966590128595840e-05 2
3.87500000000000011102e-01  2.56249999999999977796e-01  6.76266267385163488690e-01  3.23315100754228978985e-05 2
3.93749999999999988898e-01  2.56249999999999977796e-01  6.81034052572989989649e-01  3.27842093239549825512e-05 2
4.00000000000000022204e-01  2.56249999999999977796e-01  6.85539284436823548319e-01  3.32260022858354986397e-05 2
4.06250000000000000000e-01  2.56249999999999977796e-01  6.89780226239019467194e-01  3.36566036418517455786e-05 2
4.12499999999999977796e-01  2.56249999999999977796e-01  6.93755243128352572235e-01  3.40757348171738527753e-05 2
4.18750000000000011102e-01  2.56249999999999977796e-01  6.97462802770463685675e-01  3.44831239091902830296e-05 2
4.24999999999999988898e-01  2.56249999999999977796e-01  7.00901475938752738237e-01  3.48785056432099338508e-05 2
4.31250000000000022204e-01  2.56249999999999977796e-01  7.04069937065540440990e-01  3.52616213067369344003e-05 2
4.37500000000000000000e-01  2.56249999999999977796e-01  7.06966964753257931520e-01  3.56322186914059813034e-05 2
4.43749999999999977796e-01  2.56249999999999977796e-01  7.09591442245473769113e-01  3.59900520352507413691e-05 2
4.50000000000000011102e-01  2.56249999999999977796e-01  7.11942357857576757496e-01  3.63348819657494104263e-05 2
4.56249999999999988898e-01  2.56249999999999977796e-01  7.14018805366954389946e-01  3.66664754362089340134e-05 2
4.62500000000000022204e-01  2.56249999999999977796e-01  7.15819984362511152476e-01  3.69846056650358079310e-05 2
4.68750000000000000000e-01  2.56249999999999977796e-01  7.17345200553387130071e-01  3.72890520770052802391e-05 2
4.74999999999999977796e-01  2.56249999999999977796e-01  7.18593866036768891270e-01  3.75796002403117057611e-05 2
4.81250000000000011102e-01  2.56249999999999977796e-01  7.19565499524685847632e-01  3.78560418003992538161e-05 2
4.87499999999999988898e-01  2.56249999999999977796e-01  7.20259726529694610520e-01  3.81181744215641771234e-05 2
4.93750000000000022204e-01  2.56249999999999977796e-01  7.20676279509404826840e-01  3.83658017115706684308e-05 2
5.00000000000000000000e-01  2.56249999999999977796e-01  7.20814997969757897955e-01  3.85987331608106387648e-05 2
5.06249999999999977796e-01  2.56249999999999977796e-01  7.20675828527056916428e-01  3.88167840594810797938e-05 2
5.12499999999999955591e-01  2.56249999999999977796e-01  7.20258824928669438847e-01  3.90197754467358493002e-05 2
5.18750000000000044409e-01  2.56249999999999977796e-01  7.19564148032469708127e-01  3.92075340165387586921e-05 2
5.25000000000000022204e-01  2.56249999999999977796e-01  7.18592065744956931539e-01  3.93798920522714368531e-05 2
5.31250000000000000000e-01  2.56249999999999977796e-01  7.17342952918124776573e-01  3.95366873394698004063e-05 2
5.37499999999999977796e-01  2.56249999999999977796e-01  7.15817291205084416106e-01  3.96777630917721779724e-05 2
5.43749999999999955591e-01  2.56249999999999977796e-01  7.14015668874531828081e-01  3.98029678587707991255e-05 2
5.50000000000000044409e-01  2.56249999999999977796e-01  7.11938780584102426374e-01  3.99121554399695099846e-05 2
5.56250000000000022204e-01  2.56249999999999977796e-01  7.09587427112713609034e-01  4.00051847954108197314e-05 2
5.62500000000000000000e-01  2.56249999999999977796e-01  7.06962515051993034554e-01  4.00819199563029471278e-05 2
5.68749999999999977796e-01  2.56249999999999977796e-01  7.04065056456930848938e-01  4.01422299163289864055e-05 2
5.74999999999999955591e-01  2.56249999999999977796e-01  7.00896168455863222135e-01  4.01859885327260357712e-05 2
5.81250000000000044409e-01  2.56249999999999977796e-01  6.97457072819944623454e-01  4.02130744282525043332e-05 2
5.87500000000000022204e-01  2.56249999999999977796e-01  6.93749095492291578680e-01  4.02233708781674081933e-05 2
5.93750000000000000000e-01  2.56249999999999977796e-01  6.89773666076973213102e-01  4.02167656881058377394e-05 2
5.99999999999999977796e-01  2.56249999999999977796e-01  6.85532317288018000490e-01  4.01931510914943501689e-05 2
6.06249999999999955591e-01  2.56249999999999977796e-01  6.81026684358695844068e-01  4.01524236181005633739e-05 2
6.12500000000000044409e-01  2.56249999999999977796e-01  6.76258504411268002166e-01  4.00944839707984002075e-05 2
6.18750000000000022204e-01  2.56249999999999977796e-01  6.71229615787465094812e-01  4.00192368922303032264e-05 2
6.25000000000000000000e-01  2.56249999999999977796e-01  6.65941957339938994664e-01  3.99265910331347839701e-05 2
6.31249999999999977796e-01  2.56249999999999977796e-01  6.60397567684979480696e-01  3.98164588074623182479e-05 2
6.37499999999999955591e-01  2.56249999999999977796e-01  6.54598584416765993943e-01  3.96887562479353306344e-05 2