Titile = 'Poisson'  
VARIABLES = X, Y, U, Error, Rank 
zone N= 966, E = 1600
DATAPACKING=POINT, ZONETYPE=FETRIANGLE
0.00000000000000000000e+00  5.00000000000000000000e-01  0.00000000000000000000e+00  0.00000000000000000000e+00 16
6.25000000000000034694e-03  5.00000000000000000000e-01  1.96326400197504753742e-02  1.05244087782521700269e-06 16
1.25000000000000006939e-02  5.00000000000000000000e-01  3.92577112830496122164e-02  2.10447601899782510415e-06 16
1.87499999999999993061e-02  5.00000000000000000000e-01  5.88676479513431452628e-02  3.15569984588731644592e-06 16
2.50000000000000013878e-02  5.00000000000000000000e-01  7.84548900207556604292e-02  4.20570708928313941044e-06 16
3.12500000000000000000e-02  5.00000000000000000000e-01  9.80118862366072679526e-02  5.25409295333567616382e-06 16
3.74999999999999986122e-02  5.00000000000000000000e-01  1.17531097004576728926e-01  6.30045326091566160187e-06 16
4.37499999999999972244e-02  5.00000000000000000000e-01  1.37004997297336394979e-01  7.34438463162456756095e-06 16
5.00000000000000027756e-02  5.00000000000000000000e-01  1.56426079555635560991e-01  8.38548459530796819195e-06 16
5.62500000000000013878e-02  5.00000000000000000000e-01  1.75786856582557604600e-01  9.42335179690556579146e-06 16
6.25000000000000000000e-02  5.00000000000000000000e-01  1.95079864430008770304e-01  1.04575861194777797181e-05 16
6.87500000000000055511e-02  5.00000000000000000000e-01  2.14297665276209109431e-01  1.14877888416631268598e-05 16
7.49999999999999972244e-02  5.00000000000000000000e-01  2.33432850293107424511e-01  1.25135627979666708143e-05 16
8.12500000000000027756e-02  5.00000000000000000000e-01  2.52478042502613742037e-01  1.35345125442110081337e-05 16
8.74999999999999944489e-02  5.00000000000000000000e-01  2.71425899620604371698e-01  1.45502444698908384169e-05 16
9.37500000000000000000e-02  5.00000000000000000000e-01  2.90269116887444056374e-01  1.55603670182746789408e-05 16
1.00000000000000005551e-01  5.00000000000000000000e-01  3.09000429884209892872e-01  1.65644907375028793695e-05 16
1.06249999999999997224e-01  5.00000000000000000000e-01  3.27612617333174704903e-01  1.75622285187859716871e-05 16
1.12500000000000002776e-01  5.00000000000000000000e-01  3.46098503881757835199e-01  1.85531957351270371248e-05 16
1.18749999999999994449e-01  5.00000000000000000000e-01  3.64450962868815175888e-01  1.95370103344694179270e-05 16
1.25000000000000000000e-01  5.00000000000000000000e-01  3.82662919072003226972e-01  2.05132930865548068766e-05 16
1.31250000000000005551e-01  5.00000000000000000000e-01  4.00727351435633982746e-01  2.14816675069839924106e-05 16
1.37500000000000011102e-01  5.00000000000000000000e-01  4.18637295777028406452e-01  2.24417603997273396033e-05 16
1.43749999999999988898e-01  5.00000000000000000000e-01  4.36385847471830290445e-01  2.33932015117344072053e-05 16
1.49999999999999994449e-01  5.00000000000000000000e-01  4.53966164115416404012e-01  2.43356241303449571944e-05 16
1.56250000000000000000e-01  5.00000000000000000000e-01  4.71371468161128570618e-01  2.52686648690714221743e-05 16
1.62500000000000005551e-01  5.00000000000000000000e-01  4.88595049532835890016e-01  2.61919641190155871868e-05 16
1.68750000000000011102e-01  5.00000000000000000000e-01  5.05630268212180378207e-01  2.71051658041754350847e-05 16
1.74999999999999988898e-01  5.00000000000000000000e-01  5.22470556797950957950e-01  2.80079179978409698037e-05 16
1.81249999999999994449e-01  5.00000000000000000000e-01  5.39109423038475643608e-01  2.88998725245237508830e-05 16
1.87500000000000000000e-01  5.00000000000000000000e-01  5.55540452333953549413e-01  2.97806856486282356400e-05 16
1.93750000000000005551e-01  5.00000000000000000000e-01  5.71757310209809577195e-01  3.06500178026691827426e-05 16
2.00000000000000011102e-01  5.00000000000000000000e-01  5.87753744758785501290e-01  3.15075336876358136351e-05 16
2.06249999999999988898e-01  5.00000000000000000000e-01  6.03523589050661501965e-01  3.23529029099267617653e-05 16
2.12499999999999994449e-01  5.00000000000000000000e-01  6.19060763510436817825e-01  3.31857993971507170272e-05 16
2.18750000000000000000e-01  5.00000000000000000000e-01  6.34359278261479531125e-01  3.40059021659566695917e-05 16
2.25000000000000005551e-01  5.00000000000000000000e-01  6.49413235435230884462e-01  3.48128949527737319158e-05 16
2.31250000000000011102e-01  5.00000000000000000000e-01  6.64216831444476962787e-01  3.56064668047828547515e-05 16
2.37499999999999988898e-01  5.00000000000000000000e-01  6.78764359221339375061e-01  3.63863116022988819509e-05 16
2.43749999999999994449e-01  5.00000000000000000000e-01  6.93050210416763956545e-01  3.71521288718978937027e-05 16
2.50000000000000000000e-01  5.00000000000000000000e-01  7.07068877563433395572e-01  3.79036231140661428185e-05 16
2.56249999999999977796e-01  5.00000000000000000000e-01  7.20814956197850298381e-01  3.86405050684102135961e-05 16
2.62500000000000011102e-01  5.00000000000000000000e-01  7.34283146945530318384e-01  3.93624901552369621527e-05 16
2.68749999999999988898e-01  5.00000000000000000000e-01  7.47468257562252325066e-01  4.00693003443919337769e-05 16
2.75000000000000022204e-01  5.00000000000000000000e-01  7.60365204937155203524e-01  4.07606628758383493505e-05 16
2.81250000000000000000e-01  5.00000000000000000000e-01  7.72969017050982643013e-01  4.14363117543503634010e-05 16
2.87499999999999977796e-01  5.00000000000000000000e-01  7.85274834894871820445e-01  4.20959858730141078809e-05 16
2.93750000000000011102e-01  5.00000000000000000000e-01  7.97277914341423699085e-01  4.27394312834117329203e-05 16
2.99999999999999988898e-01  5.00000000000000000000e-01  8.08973627975309472760e-01  4.33663996379785032786e-05 16
3.06250000000000022204e-01  5.00000000000000000000e-01  8.20357466875853535981e-01  4.39766496601601275529e-05 16
3.12500000000000000000e-01  5.00000000000000000000e-01  8.31425042356703891677e-01  4.45699458413439941751e-05 16
3.18749999999999977796e-01  5.00000000000000000000e-01  8.42172087657114820658e-01  4.51460591716079662206e-05 16
3.25000000000000011102e-01  5.00000000000000000000e-01  8.52594459585811703661e-01  4.57047682804745392104e-05 16
3.31249999999999988898e-01  5.00000000000000000000e-01  8.62688140120761337570e-01  4.62458570303914129340e-05 16
3.37500000000000022204e-01  5.00000000000000000000e-01  8.72449237955567946656e-01  4.67691172291173629105e-05 16
3.43750000000000000000e-01  5.00000000000000000000e-01  8.81873990001523555549e-01  4.72743468313829851013e-05 16
3.49999999999999977796e-01  5.00000000000000000000e-01  8.90958762836678075381e-01  4.77613516897124057436e-05 16
3.56250000000000011102e-01  5.00000000000000000000e-01  8.99700054108899971439e-01  4.82299433215427342247e-05 16
3.62499999999999988898e-01  5.00000000000000000000e-01  9.08094493883630393682e-01  4.86799414508576333560e-05 16
3.68750000000000022204e-01  5.00000000000000000000e-01  9.16138845944710067393e-01  4.91111724258974646773e-05 16
3.75000000000000000000e-01  5.00000000000000000000e-01  9.23830009040963906486e-01  4.95234703228319972368e-05 16
3.81249999999999977796e-01  5.00000000000000000000e-01  9.31165018082825035606e-01  4.99166759784230862351e-05 16
3.87500000000000011102e-01  5.00000000000000000000e-01  9.38141045285005192866e-01  5.02906374789668930703e-05 16
3.93749999999999988898e-01  5.00000000000000000000e-01  9.44755401255401361382e-01  5.06452114765743033331e-05 16
4.00000000000000022204e-01  5.00000000000000000000e-01  9.51005536034703835568e-01  5.09802604496956135449e-05 16
4.06250000000000000000e-01  5.00000000000000000000e-01  9.56889040076590591255e-01  5.12956556183441492180e-05 16
4.12499999999999977796e-01  5.00000000000000000000e-01  9.62403645178425137807e-01  5.15912752221403536623e-05 16
4.18750000000000011102e-01  5.00000000000000000000e-01  9.67547225354516871043e-01  5.18670057428893827023e-05 16
4.24999999999999988898e-01  5.00000000000000000000e-01  9.72317797657355487040e-01  5.21227403210700046543e-05 16
4.31250000000000022204e-01  5.00000000000000000000e-01  9.76713522940392375737e-01  5.23583804801219798719e-05 16
4.37500000000000000000e-01  5.00000000000000000000e-01  9.80732706567463474734e-01  5.25738357669558453722e-05 16
4.43749999999999977796e-01  5.00000000000000000000e-01  9.84373799067278953956e-01  5.27690226126420469654e-05 16
4.50000000000000011102e-01  5.00000000000000000000e-01  9.87635396729084846790e-01  5.29438660529235605168e-05 16
4.56249999999999988898e-01  5.00000000000000000000e-01  9.90516242145066727609e-01  5.30982985105232785372e-05 16
4.62500000000000022204e-01  5.00000000000000000000e-01  9.93015224694016152007e-01  5.32322609101409938148e-05 16
4.68750000000000000000e-01  5.00000000000000000000e-01  9.95131380971171819461e-01  5.33457010249982488403e-05 16
4.74999999999999977796e-01  5.00000000000000000000e-01  9.96863895157766299882e-01  5.34385753616639647134e-05 16
4.81250000000000011102e-01  5.00000000000000000000e-01  9.98212099336726055299e-01  5.35108479898793731877e-05 16
4.87499999999999988898e-01  5.00000000000000000000e-01  9.99175473749322029526e-01  5.35624914008714370084e-05 16
4.93750000000000022204e-01  5.00000000000000000000e-01  9.99753646996727640683e-01  5.35934853371777819575e-05 16
5.00000000000000000000e-01  5.00000000000000000000e-01  9.99946396181687680027e-01  5.36038183123199729607e-05 16
5.06249999999999977796e-01  5.00000000000000000000e-01  9.99753646997058265100e-01  5.35934850065533652241e-05 16
5.12499999999999955591e-01  5.00000000000000000000e-01  9.99175473749342568652e-01  5.35624913803323110528e-05 16
5.18750000000000044409e-01  5.00000000000000000000e-01  9.98212099336323710475e-01  5.35108483922241973119e-05 16
5.25000000000000022204e-01  5.00000000000000000000e-01  9.96863895157865331775e-01  5.34385752626320709169e-05 16
5.31250000000000000000e-01  5.00000000000000000000e-01  9.95131380971192025520e-01  5.33457010049032120946e-05 16
5.37499999999999977796e-01  5.00000000000000000000e-01  9.93015224694191456223e-01  5.32322607348367782265e-05 16
5.43749999999999955591e-01  5.00000000000000000000e-01  9.90516242144934611069e-01  5.30982986426398184676e-05 16
5.50000000000000044409e-01  5.00000000000000000000e-01  9.87635396728763881313e-01  5.29438663737780146334e-05 16
5.56250000000000022204e-01  5.00000000000000000000e-01  9.84373799067450816480e-01  5.27690224407795227535e-05 16
5.62500000000000000000e-01  5.00000000000000000000e-01  9.80732706567617351645e-01  5.25738356130789341591e-05 16
5.68749999999999977796e-01  5.00000000000000000000e-01  9.76713522940079403867e-01  5.23583807930938505137e-05 16
5.74999999999999955591e-01  5.00000000000000000000e-01  9.72317797657642146625e-01  5.21227400345214419985e-05 16
5.81250000000000044409e-01  5.00000000000000000000e-01  9.67547225354731588176e-01  5.18670055281722497398e-05 16
5.87500000000000022204e-01  5.00000000000000000000e-01  9.62403645178004474303e-01  5.15912756428038576928e-05 16
5.93750000000000000000e-01  5.00000000000000000000e-01  9.56889040076651209432e-01  5.12956555577259720735e-05 16
5.99999999999999977796e-01  5.00000000000000000000e-01  9.51005536034695730940e-01  5.09802604579112639271e-05 16
6.06249999999999955591e-01  5.00000000000000000000e-01  9.44755401255589988274e-01  5.06452112880584337518e-05 16
6.12500000000000044409e-01  5.00000000000000000000e-01  9.38141045284957897366e-01  5.02906375261513716168e-05 16
6.18750000000000022204e-01  5.00000000000000000000e-01  9.31165018082816486888e-01  4.99166759870828258272e-05 16
6.25000000000000000000e-01  5.00000000000000000000e-01  9.23830009041093802580e-01  4.95234701929359033556e-05 16
6.31249999999999977796e-01  5.00000000000000000000e-01  9.16138845944666546650e-01  4.91111724694182072426e-05 16
6.37499999999999955591e-01  5.00000000000000000000e-01  9.08094493883417008817e-01  4.86799416644645432939e-05 16
6.43750000000000044409e-01  5.00000000000000000000e-01  8.99700054109130009650e-01  4.82299430913935012200e-05 16
6.50000000000000022204e-01  5.00000000000000000000e-01  8.90958762836901452253e-01  4.77613514664465554915e-05 16
6.56250000000000000000e-01  5.00000000000000000000e-01  8.81873990001209140388e-01  4.72743471459091679776e-05 16
6.62499999999999977796e-01  5.00000000000000000000e-01  8.72449237955647216580e-01  4.67691171500694835572e-05 16
6.68749999999999955591e-01  5.00000000000000000000e-01  8.62688140120726032478e-01  4.62458570659185497220e-05 16
6.75000000000000044409e-01  5.00000000000000000000e-01  8.52594459585949593361e-01  4.57047681426958618545e-05 16
6.81250000000000022204e-01  5.00000000000000000000e-01  8.42172087657045542741e-01  4.51460592409969052596e-05 16
6.87500000000000000000e-01  5.00000000000000000000e-01  8.31425042356664922849e-01  4.45699458805348669443e-05 16
6.93749999999999977796e-01  5.00000000000000000000e-01  8.20357466875944241202e-01  4.39766495694549064410e-05 16
6.99999999999999955591e-01  5.00000000000000000000e-01  8.08973627975244080623e-01  4.33663997033706394291e-05 16
7.06250000000000044409e-01  5.00000000000000000000e-01  7.97277914341254834163e-01  4.27394314522766549658e-05 16
7.12500000000000022204e-01  5.00000000000000000000e-01  7.85274834895048123862e-01  4.20959856967106915704e-05 16
7.18750000000000000000e-01  5.00000000000000000000e-01  7.72969017051145512731e-01  4.14363115915916679910e-05 16
7.24999999999999977796e-01  5.00000000000000000000e-01  7.60365204936863547935e-01  4.07606631674939379195e-05 16
7.31249999999999955591e-01  5.00000000000000000000e-01  7.47468257562292848206e-01  4.00693003042018602855e-05 16
7.37500000000000044409e-01  5.00000000000000000000e-01  7.34283146945474030076e-01  3.93624902114142471987e-05 16
7.43750000000000022204e-01  5.00000000000000000000e-01  7.20814956197945333471e-01  3.86405049735971672931e-05 16
7.50000000000000000000e-01  5.00000000000000000000e-01  7.07068877563386544161e-01  3.79036231610285767601e-05 16
7.56249999999999977796e-01  5.00000000000000000000e-01  6.93050210416697121119e-01  3.71521289387333197851e-05 16
7.62499999999999955591e-01  5.00000000000000000000e-01  6.78764359221386781584e-01  3.63863115552254257068e-05 16
7.68750000000000044409e-01  5.00000000000000000000e-01  6.64216831444577326948e-01  3.56064667041966487204e-05 16
7.75000000000000022204e-01  5.00000000000000000000e-01  6.49413235434997626605e-01  3.48128951861426116920e-05 16
7.81250000000000000000e-01  5.00000000000000000000e-01  6.34359278261595327386e-01  3.40059020501604081232e-05 16
7.87499999999999977796e-01  5.00000000000000000000e-01  6.19060763510494327377e-01  3.31857993398632089566e-05 16
7.93749999999999955591e-01  5.00000000000000000000e-01  6.03523589050554032376e-01  3.23529030175073728515e-05 16
8.00000000000000044409e-01  5.00000000000000000000e-01  5.87753744758774510082e-01  3.15075336987380438813e-05 16
8.06250000000000022204e-01  5.00000000000000000000e-01  5.71757310209932034795e-01  3.06500176802115831265e-05 16
8.12500000000000000000e-01  5.00000000000000000000e-01  5.55540452333835532706e-01  2.97806857666449431576e-05 16
8.18749999999999977796e-01  5.00000000000000000000e-01  5.39109423038484636415e-01  2.88998725157529889884e-05 16
8.24999999999999955591e-01  5.00000000000000000000e-01  5.22470556797963392448e-01  2.80079179855174942304e-05 16
8.31250000000000044409e-01  5.00000000000000000000e-01  5.05630268212208799916e-01  2.71051657757537256543e-05 16
8.37500000000000022204e-01  5.00000000000000000000e-01  4.88595049532910941092e-01  2.61919640439089995709e-05 16
8.43750000000000000000e-01  5.00000000000000000000e-01  4.71371468160954376625e-01  2.52686650434874593429e-05 16
8.49999999999999977796e-01  5.00000000000000000000e-01  4.53966164115484682728e-01  2.43356240621772634825e-05 16
8.56249999999999955591e-01  5.00000000000000000000e-01  4.36385847471907784012e-01  2.33932014346849292963e-05 16
8.62500000000000044409e-01  5.00000000000000000000e-01  4.18637295776940865366e-01  2.24417604871018916413e-05 16
8.68750000000000022204e-01  5.00000000000000000000e-01  4.00727351435612222375e-01  2.14816675289664082982e-05 16
8.75000000000000000000e-01  5.00000000000000000000e-01  3.82662919072070617510e-01  2.05132930192752915843e-05 16
8.81249999999999977796e-01  5.00000000000000000000e-01  3.64450962868733741029e-01  1.95370104159042767833e-05 16
8.87499999999999955591e-01  5.00000000000000000000e-01  3.46098503881765107160e-01  1.85531957281881432209e-05 16
8.93750000000000044409e-01  5.00000000000000000000e-01  3.27612617333162492450e-01  1.75622285308318915042e-05 16
9.00000000000000022204e-01  5.00000000000000000000e-01  3.09000429884274785408e-01  1.65644906727213658826e-05 16
9.06250000000000000000e-01  5.00000000000000000000e-01  2.90269116887482303557e-01  1.55603669800830068937e-05 16
9.12499999999999977796e-01  5.00000000000000000000e-01  2.71425899620510779897e-01  1.45502445638157063001e-05 16
9.18749999999999955591e-01  5.00000000000000000000e-01  2.52478042502642385791e-01  1.35345125157892987033e-05 16
9.25000000000000044409e-01  5.00000000000000000000e-01  2.33432850293145588427e-01  1.25135627599415322209e-05 16
9.31250000000000022204e-01  5.00000000000000000000e-01  2.14297665276156679148e-01  1.14877888940656536221e-05 16
9.37500000000000000000e-01  5.00000000000000000000e-01  1.95079864430041161061e-01  1.04575860874478454576e-05 16
9.43749999999999977796e-01  5.00000000000000000000e-01  1.75786856582578449038e-01  9.42335177628317310905e-06 16
9.49999999999999955591e-01  5.00000000000000000000e-01  1.56426079555606750704e-01  8.38548462422927798343e-06 16
9.56250000000000044409e-01  5.00000000000000000000e-01  1.37004997297336422735e-01  7.34438463162456756095e-06 16
9.62500000000000022204e-01  5.00000000000000000000e-01  1.17531097004574508480e-01  6.30045326303896313647e-06 16
9.68750000000000000000e-01  5.00000000000000000000e-01  9.80118862366193555058e-02  5.25409294147016758814e-06 16
9.74999999999999977796e-01  5.00000000000000000000e-01  7.84548900207657079475e-02  4.20570707936052112785e-06 16
9.81249999999999955591e-01  5.00000000000000000000e-01  5.88676479513395231602e-02  3.15569984996738606142e-06 16
9.87500000000000044409e-01  5.00000000000000000000e-01  3.92577112830470725813e-02  2.10447602143337686442e-06 16
9.93750000000000022204e-01  5.00000000000000000000e-01  1.96326400197573865125e-02  1.05244087114653162018e-06 16
1.00000000000000000000e+00  5.00000000000000000000e-01  0.00000000000000000000e+00  1.22464679914735320717e-16 16
0.00000000000000000000e+00  5.06249999999999977796e-01  0.00000000000000000000e+00  0.00000000000000000000e+00 16
6.25000000000000034694e-03  5.06249999999999977796e-01  1.96284300753272328288e-02  1.47780420706872250847e-06 16
1.25000000000000006939e-02  5.06249999999999977796e-01  3.92493035979703114302e-02  2.94445793835862446031e-06 16
1.87499999999999993061e-02  5.06249999999999977796e-01  5.88554610746015102740e-02  3.99466885526306159093e-06 16
2.50000000000000013878e-02  5.06249999999999977796e-01  7.84389286506231020457e-02  5.04333975170911941177e-06 16
3.12500000000000000000e-02  5.06249999999999977796e-01  9.79921565265001182077e-02  6.09006634116893152964e-06 16
3.74999999999999986122e-02  5.06249999999999977796e-01  1.17507606560663030448e-01  7.13444510128113940084e-06 16
4.37499999999999972244e-02  5.06249999999999977796e-01  1.36977755175646476182e-01  8.17607338776671355163e-06 16
5.00000000000000027756e-02  5.06249999999999977796e-01  1.56395096258507837472e-01  9.21454965344126186721e-06 16
5.62500000000000013878e-02  5.06249999999999977796e-01  1.75752144054655667915e-01  1.02494735239044842956e-05 16
6.25000000000000000000e-02  5.06249999999999977796e-01  1.95041436053666028538e-01  1.12804460365711900494e-05 16
6.87500000000000055511e-02  5.06249999999999977796e-01  2.14255535866309160253e-01  1.23070697077010127174e-05 16
7.49999999999999972244e-02  5.06249999999999977796e-01  2.33387036091308369690e-01  1.33289487959653563109e-05 16
8.12500000000000027756e-02  5.06249999999999977796e-01  2.52428561171196608193e-01  1.43456892932047885836e-05 16
8.74999999999999944489e-02  5.06249999999999977796e-01  2.71372770235538518513e-01  1.53568992716235364071e-05 16
9.37500000000000000000e-02  5.06249999999999977796e-01  2.90212359931149077585e-01  1.63621888616960475815e-05 16
1.00000000000000005551e-01  5.06249999999999977796e-01  3.08940067237567783653e-01  1.73611705100995550310e-05 16
1.06249999999999997224e-01  5.06249999999999977796e-01  3.27548672267097107369e-01  1.83534591230438692833e-05 16
1.12500000000000002776e-01  5.06249999999999977796e-01  3.46031001048319464264e-01  1.93386721020760710132e-05 16
1.18749999999999994449e-01  5.06249999999999977796e-01  3.64379928291616861369e-01  2.03164296744828831720e-05 16
1.25000000000000000000e-01  5.06249999999999977796e-01  3.82588380136295258538e-01  2.12863548500474841774e-05 16
1.31250000000000005551e-01  5.06249999999999977796e-01  4.00649336877478001728e-01  2.22480737809283013462e-05 16
1.37500000000000011102e-01  5.06249999999999977796e-01  4.18555835672652087887e-01  2.32012155894634197750e-05 16
1.43749999999999988898e-01  5.06249999999999977796e-01  4.36300973225566934843e-01  2.41454129204510259399e-05 16
1.49999999999999994449e-01  5.06249999999999977796e-01  4.53877908447896605271e-01  2.50803017731726640704e-05 16
1.56250000000000000000e-01  5.06249999999999977796e-01  4.71279865096593475471e-01  2.60055216573795711099e-05 16
1.62500000000000005551e-01  5.06249999999999977796e-01  4.88500134386109341467e-01  2.69207158817286185126e-05 16
1.68750000000000011102e-01  5.06249999999999977796e-01  5.05532077574726290692e-01  2.78255317255338141536e-05 16
1.74999999999999988898e-01  5.06249999999999977796e-01  5.22369128524251324919e-01  2.87196202409800704913e-05 16
1.81249999999999994449e-01  5.06249999999999977796e-01  5.39004796230921234823e-01  2.96026368542534612516e-05 16
1.87500000000000000000e-01  5.06249999999999977796e-01  5.55432667328309759291e-01  3.04742409964475768902e-05 16
1.93750000000000005551e-01  5.06249999999999977796e-01  5.71646408559206342659e-01  3.13340968313147172353e-05 16
2.00000000000000011102e-01  5.06249999999999977796e-01  5.87639769217861318573e-01  3.21818727304634677466e-05 16
2.06249999999999988898e-01  5.06249999999999977796e-01  6.03406583559286668894e-01  3.30172418668839284805e-05 16
2.12499999999999994449e-01  5.06249999999999977796e-01  6.18940773176331004990e-01  3.38398822774532703761e-05 16
2.18750000000000000000e-01  5.06249999999999977796e-01  6.34236349343195837669e-01  3.46494768129756991470e-05 16
2.25000000000000005551e-01  5.06249999999999977796e-01  6.49287415324190542165e-01  3.54457132730745527738e-05 16
2.31250000000000011102e-01  5.06249999999999977796e-01  6.64088168646878140855e-01  3.62282846845252137769e-05 16
2.37499999999999988898e-01  5.06249999999999977796e-01  6.78632903338966975149e-01  3.69968894917693802427e-05 16
2.43749999999999994449e-01  5.06249999999999977796e-01  6.92916012128564351436e-01  3.77512311802163935681e-05 16
2.50000000000000000000e-01  5.06249999999999977796e-01  7.06931988604981409452e-01  3.84910192958720642764e-05 16
2.56249999999999977796e-01  5.06249999999999977796e-01  7.20675429343187068376e-01  3.92159679293291318913e-05 16
2.62500000000000011102e-01  5.06249999999999977796e-01  7.34141035984145373661e-01  3.99257986124501584868e-05 16
2.68749999999999988898e-01  5.06249999999999977796e-01  7.47323617281168917081e-01  4.06202366892705057921e-05 16
2.75000000000000022204e-01  5.06249999999999977796e-01  7.60218091097333625861e-01  4.12990153333403497982e-05 16
2.81250000000000000000e-01  5.06249999999999977796e-01  7.72819486368509056540e-01  4.19618718788816735810e-05 16
2.87499999999999977796e-01  5.06249999999999977796e-01  7.85122945015852780060e-01  4.26085518691055042950e-05 16
2.93750000000000011102e-01  5.06249999999999977796e-01  7.97123723822940499772e-01  4.32388049056431356121e-05 16
2.99999999999999988898e-01  5.06249999999999977796e-01  8.08817196260093296267e-01  4.38523890170516850162e-05 16
3.06250000000000022204e-01  5.06249999999999977796e-01  8.20198854271634192337e-01  4.44490671122066416387e-05 16
3.12500000000000000000e-01  5.06249999999999977796e-01  8.31264310011855411808e-01  4.50286090446505582463e-05 16
3.18749999999999977796e-01  5.06249999999999977796e-01  8.42009297536472689494e-01  4.55907918458509087145e-05 16
3.25000000000000011102e-01  5.06249999999999977796e-01  8.52429674448911156581e-01  4.61353981279222224998e-05 16
3.31249999999999988898e-01  5.06249999999999977796e-01  8.62521423494562844425e-01  4.66622188817211736023e-05 16
3.37500000000000022204e-01  5.06249999999999977796e-01  8.72280654113210207612e-01  4.71710498631816577131e-05 16
3.43750000000000000000e-01  5.06249999999999977796e-01  8.81703603934467228243e-01  4.76616961151421492104e-05 16
3.49999999999999977796e-01  5.06249999999999977796e-01  8.90786640232929749494e-01  4.81339673583658367306e-05 16
3.56250000000000011102e-01  5.06249999999999977796e-01  8.99526261324158249444e-01  4.85876825663256184384e-05 16
3.62499999999999988898e-01  5.06249999999999977796e-01  9.07919097919014039810e-01  4.90226656645331715367e-05 16
3.68750000000000022204e-01  5.06249999999999977796e-01  9.15961914418061184939e-01  4.94387501228654713259e-05 16
3.75000000000000000000e-01  5.06249999999999977796e-01  9.23651610163181646662e-01  4.98357747880096013660e-05 16
3.81249999999999977796e-01  5.06249999999999977796e-01  9.30985220630185295043e-01  5.02135866999875446481e-05 16
3.87500000000000011102e-01  5.06249999999999977796e-01  9.37959918572238038337e-01  5.05720406027698743401e-05 16
3.93749999999999988898e-01  5.06249999999999977796e-01  9.44573015111139002720e-01  5.09109976797317287378e-05 16
4.00000000000000022204e-01  5.06249999999999977796e-01  9.50821960771442431515e-01  5.12303281009485189657e-05 16
4.06250000000000000000e-01  5.06249999999999977796e-01  9.56704346466809574245e-01  5.15299075909414483476e-05 16
4.12499999999999977796e-01  5.06249999999999977796e-01  9.62217904424247705286e-01  5.18096219865871177035e-05 16
4.18750000000000011102e-01  5.06249999999999977796e-01  9.67360509063546647468e-01  5.20693621152146235431e-05 16
4.24999999999999988898e-01  5.06249999999999977796e-01  9.72130177811379891928e-01  5.23090291861816325536e-05 16
4.31250000000000022204e-01  5.06249999999999977796e-01  9.76525071870996019818e-01  5.25285294575850159049e-05 16
4.37500000000000000000e-01  5.06249999999999977796e-01  9.80543496925837532174e-01  5.27277795444591745877e-05 16
4.43749999999999977796e-01  5.06249999999999977796e-01  9.84183903797173464945e-01  5.29067020105244978367e-05 16
4.50000000000000011102e-01  5.06249999999999977796e-01  9.87444889039249873441e-01  5.30652274846055149737e-05 16
4.56249999999999988898e-01  5.06249999999999977796e-01  9.90325195479103137508e-01  5.32032959288386564367e-05 16
4.62500000000000022204e-01  5.06249999999999977796e-01  9.92823712705086292019e-01  5.33208528007422799533e-05 16
4.68750000000000000000e-01  5.06249999999999977796e-01  9.94939477489864665394e-01  5.34178541623520075632e-05 16
4.74999999999999977796e-01  5.06249999999999977796e-01  9.96671674167111665277e-01  5.34942613447109138747e-05 16
4.81250000000000011102e-01  5.06249999999999977796e-01  9.98019634941104905046e-01  5.35500458205273588419e-05 16
4.87499999999999988898e-01  5.06249999999999977796e-01  9.98982840147661810271e-01  5.35851857285107868734e-05 16
4.93750000000000022204e-01  5.06249999999999977796e-01  9.99560918452942370749e-01  5.35996674190242217151e-05 16
5.00000000000000000000e-01  5.06249999999999977796e-01  9.99753646997058376122e-01  5.35934850064423429217e-05 16
5.06249999999999977796e-01  5.06249999999999977796e-01  9.99560951477911463492e-01  5.35666424499314786090e-05 16
5.12499999999999955591e-01  5.06249999999999977796e-01  9.98982906185800101362e-01  5.35191475902196955872e-05 16
5.18750000000000044409e-01  5.06249999999999977796e-01  9.98019733966022171145e-01  5.34510209032612593205e-05 16
5.25000000000000022204e-01  5.06249999999999977796e-01  9.96671806141094185350e-01  5.33622873621908411224e-05 16
5.31250000000000000000e-01  5.06249999999999977796e-01  9.94939642361925336012e-01  5.32529821017924120952e-05 16
5.37499999999999977796e-01  5.06249999999999977796e-01  9.92823910410960630557e-01  5.31231469264037414746e-05 16
5.43749999999999955591e-01  5.06249999999999977796e-01  9.90325425943850423671e-01  5.29728311815524932626e-05 16
5.50000000000000044409e-01  5.06249999999999977796e-01  9.87445152173207052471e-01  5.28020935273154634615e-05 16
5.56250000000000022204e-01  5.06249999999999977796e-01  9.84184199498961076458e-01  5.26110002229129847251e-05 16
5.62500000000000000000e-01  5.06249999999999977796e-01  9.80543825081916842201e-01  5.23996234651491477052e-05 16
5.68749999999999977796e-01  5.06249999999999977796e-01  9.76525432354332867391e-01  5.21680461207374435162e-05 16
5.74999999999999955591e-01  5.06249999999999977796e-01  9.72130570483127343095e-01  5.19163574388414872374e-05 16
5.81250000000000044409e-01  5.06249999999999977796e-01  9.67360933772542619380e-01  5.16446531192427116252e-05 16
5.87500000000000022204e-01  5.06249999999999977796e-01  9.62218361006753286624e-01  5.13530394810057799759e-05 16
5.93750000000000000000e-01  5.06249999999999977796e-01  9.56704834746581633809e-01  5.10416278188818850481e-05 16
5.99999999999999977796e-01  5.06249999999999977796e-01  9.50822480560469140975e-01  5.07105390743500805684e-05 16
6.06249999999999955591e-01  5.06249999999999977796e-01  9.44573566208470771777e-01  5.03599003480736939764e-05 16
6.12500000000000044409e-01  5.06249999999999977796e-01  9.37960500766466420686e-01  4.99898463742765031270e-05 16
6.18750000000000022204e-01  5.06249999999999977796e-01  9.30985833695330056159e-01  4.96005215553374512183e-05 16
6.25000000000000000000e-01  5.06249999999999977796e-01  9.23652253864150396545e-01  4.91920738192597184479e-05 16