Titile = 'Poisson'  
VARIABLES = X, Y, U, Error, Rank 
zone N= 1771, E = 3200
DATAPACKING=POINT, ZONETYPE=FETRIANGLE
0.00000000000000000000e+00  6.25000000000000000000e-02  0.00000000000000000000e+00  0.00000000000000000000e+00 1
6.25000000000000034694e-03  6.25000000000000000000e-02  3.85139687982990249621e-03  2.10534953202978422637e-05 1
1.25000000000000006939e-02  6.25000000000000000000e-02  7.70078041982201477733e-03  4.15703210914532272913e-05 1
1.87499999999999993061e-02  6.25000000000000000000e-02  1.15264488024718787795e-02  4.13247608131526306119e-05 1
2.50000000000000013878e-02  6.25000000000000000000e-02  1.53476735196924011367e-02  4.10632690528989208190e-05 1
3.12500000000000000000e-02  6.25000000000000000000e-02  1.91629814166147625920e-02  4.07859466207520504621e-05 1
3.74999999999999986122e-02  6.25000000000000000000e-02  2.29709016194170334568e-02  4.04929004298344719093e-05 1
4.37499999999999972244e-02  6.25000000000000000000e-02  2.67699661023738100241e-02  4.01842434548799198879e-05 1
5.00000000000000027756e-02  6.25000000000000000000e-02  3.05587102538086297088e-02  3.98600946892313512393e-05 1
5.62500000000000013878e-02  6.25000000000000000000e-02  3.43356734407288949340e-02  3.95205790982497418007e-05 1
6.25000000000000000000e-02  6.25000000000000000000e-02  3.80993995719283370938e-02  3.91658275717202131183e-05 1
6.87500000000000055511e-02  6.25000000000000000000e-02  4.18484376593375936859e-02  3.87959768731183096691e-05 1
7.49999999999999972244e-02  6.25000000000000000000e-02  4.55813423774078310680e-02  3.84111695870201219627e-05 1
8.12500000000000027756e-02  6.25000000000000000000e-02  4.92966746203109124069e-02  3.80115540637021576131e-05 1
8.74999999999999944489e-02  6.25000000000000000000e-02  5.29930020567426635081e-02  3.75972843626101727033e-05 1
9.37500000000000000000e-02  6.25000000000000000000e-02  5.66688996821137144777e-02  3.71685201927957065138e-05 1
1.00000000000000005551e-01  6.25000000000000000000e-02  6.03229503679158229890e-02  3.67254268512431925053e-05 1
1.06249999999999997224e-01  6.25000000000000000000e-02  6.39537454080507383747e-02  3.62681751580329336804e-05 1
1.12500000000000002776e-01  6.25000000000000000000e-02  6.75598850619165136600e-02  3.57969413937730962516e-05 1
1.18749999999999994449e-01  6.25000000000000000000e-02  7.11399790940285547958e-02  3.53119072260127397911e-05 1
1.25000000000000000000e-01  6.25000000000000000000e-02  7.46926473099884941087e-02  3.48132596458966547814e-05 1
1.31250000000000005551e-01  6.25000000000000000000e-02  7.82165200885718558954e-02  3.43011908924550912303e-05 1
1.37500000000000011102e-01  6.25000000000000000000e-02  8.17102389097416614838e-02  3.37758983770669596325e-05 1
1.43749999999999988898e-01  6.25000000000000000000e-02  8.51724568783842894693e-02  3.32375846079785430831e-05 1
1.49999999999999994449e-01  6.25000000000000000000e-02  8.86018392435719559508e-02  3.26864571207896581484e-05 1
1.56250000000000000000e-01  6.25000000000000000000e-02  9.19970639131144352074e-02  3.21227283784919492859e-05 1
1.62500000000000005551e-01  6.25000000000000000000e-02  9.53568219632757729798e-02  3.15466157144728143180e-05 1
1.68750000000000011102e-01  6.25000000000000000000e-02  9.86798181433700544174e-02  3.09583412294589521707e-05 1
1.74999999999999988898e-01  6.25000000000000000000e-02  1.01964771375115573204e-01  3.03581317162987529557e-05 1
1.81249999999999994449e-01  6.25000000000000000000e-02  1.05210415246503999342e-01  2.97462185616381713515e-05 1
1.87500000000000000000e-01  6.25000000000000000000e-02  1.08415498500045087704e-01  2.91228376754909534796e-05 1
1.93750000000000005551e-01  6.25000000000000000000e-02  1.11578785515131076456e-01  2.84882293810767572850e-05 1
2.00000000000000011102e-01  6.25000000000000000000e-02  1.14699056784403383147e-01  2.78426383336083382858e-05 1
2.06249999999999988898e-01  6.25000000000000000000e-02  1.17775109383887008341e-01  2.71863134171518305848e-05 1
2.12499999999999994449e-01  6.25000000000000000000e-02  1.20805757436752106426e-01  2.65195076600138746059e-05 1
2.18750000000000000000e-01  6.25000000000000000000e-02  1.23789832570482205565e-01  2.58424781274524395513e-05 1
2.25000000000000005551e-01  6.25000000000000000000e-02  1.26726184367310090728e-01  2.51554858285429894238e-05 1
2.31250000000000011102e-01  6.25000000000000000000e-02  1.29613680807719761079e-01  2.44587956095831948744e-05 1
2.37499999999999988898e-01  6.25000000000000000000e-02  1.32451208706869855147e-01  2.37526760603345987732e-05 1
2.43749999999999994449e-01  6.25000000000000000000e-02  1.35237674143737274246e-01  2.30373994001553672462e-05 1
2.50000000000000000000e-01  6.25000000000000000000e-02  1.37972002882859878792e-01  2.23132413884052915876e-05 1
2.56249999999999977796e-01  6.25000000000000000000e-02  1.40653140788447789111e-01  2.15804811911357585785e-05 1
2.62500000000000011102e-01  6.25000000000000000000e-02  1.43280054230810555138e-01  2.08394013112844778135e-05 1
2.68749999999999988898e-01  6.25000000000000000000e-02  1.45851730484808428390e-01  2.00902874471775572118e-05 1
2.75000000000000022204e-01  6.25000000000000000000e-02  1.48367178120286435927e-01  1.93334283914436966256e-05 1
2.81250000000000000000e-01  6.25000000000000000000e-02  1.50825427384306376410e-01  1.85691159367284974735e-05 1
2.87499999999999977796e-01  6.25000000000000000000e-02  1.53225530574966795072e-01  1.77976447247596425427e-05 1
2.93750000000000011102e-01  6.25000000000000000000e-02  1.55566562406818542641e-01  1.70193121912243228167e-05 1
2.99999999999999988898e-01  6.25000000000000000000e-02  1.57847620367512625483e-01  1.62344183839147060411e-05 1
3.06250000000000022204e-01  6.25000000000000000000e-02  1.60067825065791397021e-01  1.54432659024705820627e-05 1
3.12500000000000000000e-01  6.25000000000000000000e-02  1.62226320570470511351e-01  1.46461597416436273278e-05 1
3.18749999999999977796e-01  6.25000000000000000000e-02  1.64322274740458212916e-01  1.38434072151361053926e-05 1
3.25000000000000011102e-01  6.25000000000000000000e-02  1.66354879545514533490e-01  1.30353177901776362546e-05 1
3.31249999999999988898e-01  6.25000000000000000000e-02  1.68323351377787838734e-01  1.22222029937668619226e-05 1
3.37500000000000022204e-01  6.25000000000000000000e-02  1.70226931353933630398e-01  1.14043763155546873378e-05 1
3.43750000000000000000e-01  6.25000000000000000000e-02  1.72064885607621009811e-01  1.05821530294869514677e-05 1
3.49999999999999977796e-01  6.25000000000000000000e-02  1.73836505572502436623e-01  9.75585012261137585199e-06 1
3.56250000000000011102e-01  6.25000000000000000000e-02  1.75541108255358097034e-01  8.92578615138694964060e-06 1
3.62499999999999988898e-01  6.25000000000000000000e-02  1.77178036499396646120e-01  8.09228111281479201011e-06 1
3.68750000000000022204e-01  6.25000000000000000000e-02  1.78746659237631833061e-01  7.25565635106839579294e-06 1
3.75000000000000000000e-01  6.25000000000000000000e-02  1.80246371736134530783e-01  6.41623439756600077999e-06 1
3.81249999999999977796e-01  6.25000000000000000000e-02  1.81676595827178460896e-01  5.57433885564617703778e-06 1
3.87500000000000011102e-01  6.25000000000000000000e-02  1.83036780132166426727e-01  4.73029430744786871799e-06 1
3.93749999999999988898e-01  6.25000000000000000000e-02  1.84326400274146928737e-01  3.88442613868944519595e-06 1
4.00000000000000022204e-01  6.25000000000000000000e-02  1.85544959080009286279e-01  3.03706045065577079356e-06 1
4.06250000000000000000e-01  6.25000000000000000000e-02  1.86691986772138912576e-01  2.18852392039337040330e-06 1
4.12499999999999977796e-01  6.25000000000000000000e-02  1.87767041149510399700e-01  1.33914365949006075596e-06 1
4.18750000000000011102e-01  6.25000000000000000000e-02  1.88769707758230292916e-01  4.89247153789840183435e-07 1
4.24999999999999988898e-01  6.25000000000000000000e-02  1.89699600051199068762e-01  3.60837980634132193813e-07 1
4.31250000000000022204e-01  6.25000000000000000000e-02  1.90556359537255248782e-01  1.21078400108776129684e-06 1
4.37500000000000000000e-01  6.25000000000000000000e-02  1.91339655919302159548e-01  2.06026324270358607293e-06 1
4.43749999999999977796e-01  6.25000000000000000000e-02  1.92049187221683043125e-01  2.90894820589859826043e-06 1
4.50000000000000011102e-01  6.25000000000000000000e-02  1.92684679906548445016e-01  3.75651173234459179184e-06 1
4.56249999999999988898e-01  6.25000000000000000000e-02  1.93245888979413943387e-01  4.60262702731140116441e-06 1
4.62500000000000022204e-01  6.25000000000000000000e-02  1.93732598083452250970e-01  5.44696794391175131977e-06 1
4.68750000000000000000e-01  6.25000000000000000000e-02  1.94144619583076216696e-01  6.28920893522288970701e-06 1
4.74999999999999977796e-01  6.25000000000000000000e-02  1.94481794636127441889e-01  7.12902532848391778941e-06 1
4.81250000000000011102e-01  6.25000000000000000000e-02  1.94743993255227981765e-01  7.96609333500453153931e-06 1
4.87499999999999988898e-01  6.25000000000000000000e-02  1.94931114357791646086e-01  8.80009027645622943226e-06 1
4.93750000000000022204e-01  6.25000000000000000000e-02  1.95043085805100185892e-01  9.63069460241383623611e-06 1
5.00000000000000000000e-01  6.25000000000000000000e-02  1.95079864430007993148e-01  1.04575861202549358353e-05 1
5.06249999999999977796e-01  6.25000000000000000000e-02  1.95041436053665306893e-01  1.12804460372928350154e-05 1
5.12499999999999955591e-01  6.25000000000000000000e-02  1.94927815490954725597e-01  1.20989571133767181976e-05 1
5.18750000000000044409e-01  6.25000000000000000000e-02  1.94739046544722987919e-01  1.29128038399983768869e-05 1
5.25000000000000022204e-01  6.25000000000000000000e-02  1.94475201989043250395e-01  1.37216724126754119339e-05 1
5.31250000000000000000e-01  6.25000000000000000000e-02  1.94136383540979839957e-01  1.45252510316273841795e-05 1
5.37499999999999977796e-01  6.25000000000000000000e-02  1.93722721821520560415e-01  1.53232298756023066488e-05 1
5.43749999999999955591e-01  6.25000000000000000000e-02  1.93234376305105537419e-01  1.61153013357173691134e-05 1
5.50000000000000044409e-01  6.25000000000000000000e-02  1.92671535258248177724e-01  1.69011600325841282455e-05 1
5.56250000000000022204e-01  6.25000000000000000000e-02  1.92034415666871211004e-01  1.76805030177307198613e-05 1
5.62500000000000000000e-01  6.25000000000000000000e-02  1.91323263152723882508e-01  1.84530298209806264964e-05 1
5.68749999999999977796e-01  6.25000000000000000000e-02  1.90538351878623696267e-01  1.92184426326402757468e-05 1
5.74999999999999955591e-01  6.25000000000000000000e-02  1.89679984442792687327e-01  1.99764463870433228720e-05 1
5.81250000000000044409e-01  6.25000000000000000000e-02  1.88748491762252640358e-01  2.07267488238627173303e-05 1
5.87500000000000022204e-01  6.25000000000000000000e-02  1.87744232945145000935e-01  2.14690607059087046338e-05 1
5.93750000000000000000e-01  6.25000000000000000000e-02  1.86667595152357451704e-01  2.22030958610675011045e-05 1
5.99999999999999977796e-01  6.25000000000000000000e-02  1.85518993448261004797e-01  2.29285712976534661323e-05 1
6.06249999999999955591e-01  6.25000000000000000000e-02  1.84298870640675127586e-01  2.36452073331394618805e-05 1
6.12500000000000044409e-01  6.25000000000000000000e-02  1.83007697110168815469e-01  2.43527276901356337646e-05 1
6.18750000000000022204e-01  6.25000000000000000000e-02  1.81645970628722758233e-01  2.50508596000842409524e-05 1
6.25000000000000000000e-01  6.25000000000000000000e-02  1.80214216167788460199e-01  2.57393339485045835602e-05 1
6.31249999999999977796e-01  6.25000000000000000000e-02  1.78712985696004605929e-01  2.64178852761587368292e-05 1
6.37499999999999955591e-01  6.25000000000000000000e-02  1.77142857966274963610e-01  2.70862520089232283738e-05 1
6.43750000000000044409e-01  6.25000000000000000000e-02  1.75504438292729575410e-01  2.77441764771346743856e-05 1
6.50000000000000022204e-01  6.25000000000000000000e-02  1.73798358317340029267e-01  2.83914050398237360895e-05 1
6.56250000000000000000e-01  6.25000000000000000000e-02  1.72025275766419266654e-01  2.90276881722839608102e-05 1
6.62499999999999977796e-01  6.25000000000000000000e-02  1.70185874197039205269e-01  2.96527805789259524261e-05 1
6.68749999999999955591e-01  6.25000000000000000000e-02  1.68280862733517666552e-01  3.02664412764330759131e-05 1
6.75000000000000044409e-01  6.25000000000000000000e-02  1.66310975794046050913e-01  3.08684336783326962461e-05 1
6.81250000000000022204e-01  6.25000000000000000000e-02  1.64276972807523125031e-01  3.14585257199517798199e-05 1
6.87500000000000000000e-01  6.25000000000000000000e-02  1.62179637920830593822e-01  3.20364898983016566092e-05 1
6.93749999999999977796e-01  6.25000000000000000000e-02  1.60019779696494390819e-01  3.26021033945356197847e-05 1
6.99999999999999955591e-01  6.25000000000000000000e-02  1.57798230800966166054e-01  3.31551481625447230783e-05 1
7.06250000000000044409e-01  6.25000000000000000000e-02  1.55515847683636826426e-01  3.36954109904918919227e-05 1
7.12500000000000022204e-01  6.25000000000000000000e-02  1.53173510246641081389e-01  3.42226836009540402728e-05 1
7.18750000000000000000e-01  6.25000000000000000000e-02  1.50772121505670653185e-01  3.47367626990224831474e-05 1
7.24999999999999977796e-01  6.25000000000000000000e-02  1.48312607241760735510e-01  3.52374501342567203466e-05 1
7.31249999999999955591e-01  6.25000000000000000000e-02  1.45795915644511608900e-01  3.57245528496974440458e-05 1
7.37500000000000044409e-01  6.25000000000000000000e-02  1.43223016946421921602e-01  3.61978830773213022809e-05 1
7.43750000000000022204e-01  6.25000000000000000000e-02  1.40594903048927466482e-01  3.66572583292423814783e-05 1
7.50000000000000000000e-01  6.25000000000000000000e-02  1.37912587139966069660e-01  3.71025015054315954188e-05 1
7.56249999999999977796e-01  6.25000000000000000000e-02  1.35177103303373152832e-01  3.75334409639660471214e-05 1
7.62499999999999955591e-01  6.25000000000000000000e-02  1.32389506120247163468e-01  3.79499105624125920855e-05 1
7.68750000000000044409e-01  6.25000000000000000000e-02  1.29550870262345269035e-01  3.83517497648810934407e-05 1
7.75000000000000022204e-01  6.25000000000000000000e-02  1.26662290077866057647e-01  3.87388036155178472342e-05 1
7.81250000000000000000e-01  6.25000000000000000000e-02  1.23724879169423318537e-01  3.91109229314345885342e-05 1
7.87499999999999977796e-01  6.25000000000000000000e-02  1.20739769964850834905e-01  3.94679642412992803813e-05 1
7.93749999999999955591e-01  6.25000000000000000000e-02  1.17708113280570389469e-01  3.98097898994947962947e-05 1
8.00000000000000044409e-01  6.25000000000000000000e-02  1.14631077877946810362e-01  4.01362681229783246906e-05 1
8.06250000000000022204e-01  6.25000000000000000000e-02  1.11509850012697156463e-01  4.04472730528432355968e-05 1
8.12500000000000000000e-01  6.25000000000000000000e-02  1.08345632977580541567e-01  4.07426847890551835363e-05 1
8.18749999999999977796e-01  6.25000000000000000000e-02  1.05139646638497563647e-01  4.10223894448391579459e-05 1
8.24999999999999955591e-01  6.25000000000000000000e-02  1.01893126964209379537e-01  4.12862791899226699854e-05 1
8.31250000000000044409e-01  6.25000000000000000000e-02  9.86073255498529921415e-02  4.15342522876033237722e-05 1
8.37500000000000022204e-01  6.25000000000000000000e-02  9.52835091344220314058e-02  4.17662131392548818809e-05 1
8.43750000000000000000e-01  6.25000000000000000000e-02  9.19229591124162415117e-02  4.19820723197433798290e-05 1
8.49999999999999977796e-01  6.25000000000000000000e-02  8.85269710398338127710e-02  4.21817466173673993879e-05 1
8.56249999999999955591e-01  6.25000000000000000000e-02  8.50968541347304902045e-02  4.23651590459039883996e-05 1
8.62500000000000044409e-01  6.25000000000000000000e-02  8.16339307724723711734e-02  4.25322388921817173824e-05 1
8.68750000000000022204e-01  6.25000000000000000000e-02  7.81395359759173291359e-02  4.26829217621271794769e-05 1
8.75000000000000000000e-01  6.25000000000000000000e-02  7.46150169007955832434e-02  4.28171495470419660734e-05 1
8.81249999999999977796e-01  6.25000000000000000000e-02  7.10617323162962694072e-02  4.29348705062726487824e-05 1
8.87499999999999955591e-01  6.25000000000000000000e-02  6.74810520812668263035e-02  4.30360392559836490989e-05 1
8.93750000000000044409e-01  6.25000000000000000000e-02  6.38743566161005943416e-02  4.31206167920694660722e-05 1
9.00000000000000022204e-01  6.25000000000000000000e-02  6.02430363705524010709e-02  4.31885705121995422395e-05 1
9.06250000000000000000e-01  6.25000000000000000000e-02  5.65884912877036572176e-02  4.32398742172684924512e-05 1
9.12499999999999977796e-01  6.25000000000000000000e-02  5.29121302642532459481e-02  4.32745081268698372767e-05 1
9.18749999999999955591e-01  6.25000000000000000000e-02  4.92153706073646529662e-02  4.32924588825989165031e-05 1
9.25000000000000044409e-01  6.25000000000000000000e-02  4.54996374882389795213e-02  4.32937195818591802343e-05 1
9.31250000000000022204e-01  6.25000000000000000000e-02  4.17663633927440533511e-02  4.32782897204150862613e-05 1
9.37500000000000000000e-01  6.25000000000000000000e-02  3.80169875690980277327e-02  4.32461752586585368441e-05 1
9.43749999999999977796e-01  6.25000000000000000000e-02  3.42529554730604743340e-02  4.31973885702124915653e-05 1
9.49999999999999955591e-01  6.25000000000000000000e-02  3.04757182106495348728e-02  4.31319484698843014225e-05 1
9.56250000000000044409e-01  6.25000000000000000000e-02  2.66867319787398443731e-02  4.30498801790926699518e-05 1
9.62500000000000022204e-01  6.25000000000000000000e-02  2.28874575036448965615e-02  4.29512153422850762041e-05 1
9.68750000000000000000e-01  6.25000000000000000000e-02  1.90793594780012537582e-02  4.28359919927984167387e-05 1
9.74999999999999977796e-01  6.25000000000000000000e-02  1.52639059960863136128e-02  4.27042545532128892116e-05 1
9.81249999999999955591e-01  6.25000000000000000000e-02  1.14425679878476307949e-02  4.25560538111855596322e-05 1
9.87500000000000044409e-01  6.25000000000000000000e-02  7.61681865183058779550e-03  4.23914468999538052163e-05 1
9.93750000000000022204e-01  6.25000000000000000000e-02  3.80887924712984332273e-03  2.14641373798064340195e-05 1
1.00000000000000000000e+00  6.25000000000000000000e-02  0.00000000000000000000e+00  2.38916738401677866351e-17 1
0.00000000000000000000e+00  6.87500000000000055511e-02  0.00000000000000000000e+00  0.00000000000000000000e+00 1
6.25000000000000034694e-03  6.87500000000000055511e-02  4.22862614972812581732e-03  2.09461469512020603823e-05 1
1.25000000000000006939e-02  6.87500000000000055511e-02  8.45509569664028813596e-03  4.13578318243616738226e-05 1
1.87499999999999993061e-02  6.87500000000000055511e-02  1.26576443048774626987e-02  4.10922341322426248889e-05 1
2.50000000000000013878e-02  6.87500000000000055511e-02  1.68553131502857979351e-02  4.08107946016054989880e-05 1
3.12500000000000000000e-02  6.87500000000000055511e-02  2.10464839516191666580e-02  4.05136217328030956430e-05 1
3.74999999999999986122e-02  6.87500000000000055511e-02  2.52295409327509129183e-02  4.02008300914753757827e-05 1
4.37499999999999972244e-02  6.87500000000000055511e-02  2.94028714455871371947e-02  3.98725402652178040341e-05 1
5.00000000000000027756e-02  6.87500000000000055511e-02  3.35648665917714222884e-02  3.95288788152536874065e-05 1
5.62500000000000013878e-02  6.87500000000000055511e-02  3.77139218429485695294e-02  3.91699782304744115180e-05 1
6.25000000000000000000e-02  6.87500000000000055511e-02  4.18484376593375936859e-02  3.87959768731183096691e-05 1
6.87500000000000055511e-02  6.87500000000000055511e-02  4.59668201063876957768e-02  3.84070189283353125020e-05 1
7.49999999999999972244e-02  6.87500000000000055511e-02  5.00674814692682670914e-02  3.80032543465663730231e-05 1
8.12500000000000027756e-02  6.87500000000000055511e-02  5.41488408649639513248e-02  3.75848387864086141974e-05 1
8.74999999999999944489e-02  6.87500000000000055511e-02  5.82093248517370764894e-02  3.71519335566339314880e-05 1
9.37500000000000000000e-02  6.87500000000000055511e-02  6.22473680357137279517e-02  3.67047055482988549002e-05 1
1.00000000000000005551e-01  6.87500000000000055511e-02  6.62614136743795573148e-02  3.62433271770268294887e-05 1
1.06249999999999997224e-01  6.87500000000000055511e-02  7.02499142767309819879e-02  3.57679763139384654380e-05 1
1.12500000000000002776e-01  6.87500000000000055511e-02  7.42113321998597169626e-02  3.52788362143613420940e-05 1
1.18749999999999994449e-01  6.87500000000000055511e-02  7.81441402417491215449e-02  3.47760954528680832354e-05 1
1.25000000000000000000e-01  6.87500000000000055511e-02  8.20468222300334421027e-02  3.42599478444088889617e-05 1
1.31250000000000005551e-01  6.87500000000000055511e-02  8.59178736065146081424e-02  3.37305923730907286640e-05 1
1.37500000000000011102e-01  6.87500000000000055511e-02  8.97558020071989176580e-02  3.31882331162519639278e-05 1
1.43749999999999988898e-01  6.87500000000000055511e-02  9.35591278376308593812e-02  3.26330791650258911218e-05 1
1.49999999999999994449e-01  6.87500000000000055511e-02  9.73263848432997652482e-02  3.20653445383539681401e-05 1
1.56250000000000000000e-01  6.87500000000000055511e-02  1.01056120674922395031e-01  3.14852481142074980269e-05 1
1.62500000000000005551e-01  6.87500000000000055511e-02  1.04746897448330961167e-01  3.08930135249074755421e-05 1
1.68750000000000011102e-01  6.87500000000000055511e-02  1.08397292298825290158e-01  3.02888690912744840134e-05 1
1.74999999999999988898e-01  6.87500000000000055511e-02  1.12005897929701406235e-01  2.96730477217926891242e-05 1
1.81249999999999994449e-01  6.87500000000000055511e-02  1.15571323154799288080e-01  2.90457868309806910290e-05 1
1.87500000000000000000e-01  6.87500000000000055511e-02  1.19092193434816140396e-01  2.84073282322966358393e-05 1
1.93750000000000005551e-01  6.87500000000000055511e-02  1.22567151407241697880e-01  2.77579180691794880076e-05 1
2.00000000000000011102e-01  6.87500000000000055511e-02  1.25994857409628790990e-01  2.70978067016813817247e-05 1
2.06249999999999988898e-01  6.87500000000000055511e-02  1.29373989996058896823e-01  2.64272486100447512314e-05 1
2.12499999999999994449e-01  6.87500000000000055511e-02  1.32703246446601669239e-01  2.57465023136838055962e-05 1
2.18750000000000000000e-01  6.87500000000000055511e-02  1.35981343269518523131e-01  2.50558302515857533876e-05 1
2.25000000000000005551e-01  6.87500000000000055511e-02  1.39207016696078655915e-01  2.43554986868455003446e-05 1
2.31250000000000011102e-01  6.87500000000000055511e-02  1.42379023167777646330e-01  2.36457776156273613566e-05 1
2.37499999999999988898e-01  6.87500000000000055511e-02  1.45496139815737973722e-01  2.29269406482046633755e-05 1
2.43749999999999994449e-01  6.87500000000000055511e-02  1.48557164932151541947e-01  2.21992649065416713938e-05 1
2.50000000000000000000e-01  6.87500000000000055511e-02  1.51560918433573527109e-01  2.14630309303687205613e-05 1
2.56249999999999977796e-01  6.87500000000000055511e-02  1.54506242315840008894e-01  2.07185225418182739077e-05 1
2.62500000000000011102e-01  6.87500000000000055511e-02  1.57392001100535555702e-01  1.99660267710399796925e-05 1
2.68749999999999988898e-01  6.87500000000000055511e-02  1.60217082272708588597e-01  1.92058337123435229898e-05 1
2.75000000000000022204e-01  6.87500000000000055511e-02  1.62980396709802438648e-01  1.84382364476487481397e-05 1
2.81250000000000000000e-01  6.87500000000000055511e-02  1.65680879101478106818e-01  1.76635308790085154840e-05 1
2.87499999999999977796e-01  6.87500000000000055511e-02  1.68317488360397282676e-01  1.68820156998539250282e-05 1
2.93750000000000011102e-01  6.87500000000000055511e-02  1.70889208023466465658e-01  1.60939921650393724661e-05 1
2.99999999999999988898e-01  6.87500000000000055511e-02  1.73395046643834677136e-01  1.52997641067464940079e-05 1
3.06250000000000022204e-01  6.87500000000000055511e-02  1.75834038172977630277e-01  1.44996376797157378036e-05 1
3.12500000000000000000e-01  6.87500000000000055511e-02  1.78205242333270619248e-01  1.36939213860320929683e-05 1
3.18749999999999977796e-01  6.87500000000000055511e-02  1.80507744980333534324e-01  1.28829258062568285936e-05 1
3.25000000000000011102e-01  6.87500000000000055511e-02  1.82740658455599225274e-01  1.20669636280434922071e-05 1
3.31249999999999988898e-01  6.87500000000000055511e-02  1.84903121928393504581e-01  1.12463493963377292317e-05 1
3.37500000000000022204e-01  6.87500000000000055511e-02  1.86994301727900408272e-01  1.04213994907287332836e-05 1
3.43750000000000000000e-01  6.87500000000000055511e-02  1.89013391664480334686e-01  9.59243192563685731500e-06 1
3.49999999999999977796e-01  6.87500000000000055511e-02  1.90959613340551642713e-01  8.75976630787533849798e-06 1
3.56250000000000011102e-01  6.87500000000000055511e-02  1.92832216450586818590e-01  7.92372362248827677433e-06 1
3.62499999999999988898e-01  6.87500000000000055511e-02  1.94630479070464296187e-01  7.08462620394034736648e-06 1
3.68750000000000022204e-01  6.87500000000000055511e-02  1.96353707935692289865e-01  6.24279751981760000490e-06 1
3.75000000000000000000e-01  6.87500000000000055511e-02  1.98001238708741228445e-01  5.39856211231870553036e-06 1
3.81249999999999977796e-01  6.87500000000000055511e-02  1.99572436235156441819e-01  4.55224547077359709135e-06 1
3.87500000000000011102e-01  6.87500000000000055511e-02  2.01066694788348349077e-01  3.70417383221965934581e-06 1
3.93749999999999988898e-01  6.87500000000000055511e-02  2.02483438303241058964e-01  2.85467418545404250096e-06 1
4.00000000000000022204e-01  6.87500000000000055511e-02  2.03822120598204120645e-01  2.00407399211788295190e-06 1
4.06250000000000000000e-01  6.87500000000000055511e-02  2.05082225585751370955e-01  1.15270119632748802019e-06 1
4.12499999999999977796e-01  6.87500000000000055511e-02  2.06263267471425787436e-01  3.00884021448011296229e-07 1
4.18750000000000011102e-01  6.87500000000000055511e-02  2.07364790941057752782e-01  5.51049181368723495211e-07 1
4.24999999999999988898e-01  6.87500000000000055511e-02  2.08386371336457598691e-01  1.40276989929466466833e-06 1
4.31250000000000022204e-01  6.87500000000000055511e-02  2.09327614818846818867e-01  2.25394986727578405805e-06 1
4.37500000000000000000e-01  6.87500000000000055511e-02  2.10188158521026097203e-01  3.10426085856074784886e-06 1
4.43749999999999977796e-01  6.87500000000000055511e-02  2.10967670686958708171e-01  3.95337512049120931579e-06 1
4.50000000000000011102e-01  6.87500000000000055511e-02  2.11665850799901772428e-01  4.80096526761508712866e-06 1
4.56249999999999988898e-01  6.87500000000000055511e-02  2.12282429698098129567e-01  5.64670457084415211568e-06 1
4.62500000000000022204e-01  6.87500000000000055511e-02  2.12817169678685857992e-01  6.49026694121701552831e-06 1
4.68750000000000000000e-01  6.87500000000000055511e-02  2.13269864589190089044e-01  7.33132720245888158672e-06 1
4.74999999999999977796e-01  6.87500000000000055511e-02  2.13640339907121473706e-01  8.16956109375710504139e-06 1
4.81250000000000011102e-01  6.87500000000000055511e-02  2.13928452807198549168e-01  9.00464545405821326085e-06 1
4.87499999999999988898e-01  6.87500000000000055511e-02  2.14134092216395843788e-01  9.83625836040169509999e-06 1
4.93750000000000022204e-01  6.87500000000000055511e-02  2.14257178856811364431e-01  1.06640792054968347458e-05 1
5.00000000000000000000e-01  6.87500000000000055511e-02  2.14297665276208193497e-01  1.14877888425790608551e-05 1
5.06249999999999977796e-01  6.87500000000000055511e-02  2.14255535866308327586e-01  1.23070697085336799859e-05 1
5.12499999999999955591e-01  6.87500000000000055511e-02  2.14130806868766454532e-01  1.31216059897909520515e-05 1
5.18750000000000044409e-01  6.87500000000000055511e-02  2.13923526369044991746e-01  1.39310836076156352448e-05 1
5.25000000000000022204e-01  6.87500000000000055511e-02  2.13633774277659033158e-01  1.47351905561976526116e-05 1
5.31250000000000000000e-01  6.87500000000000055511e-02  2.13261662299603776960e-01  1.55336167887987208758e-05 1
5.37499999999999977796e-01  6.87500000000000055511e-02  2.12807333891081501553e-01  1.63260545455734540354e-05 1
5.43749999999999955591e-01  6.87500000000000055511e-02  2.12270964204404555264e-01  1.71121982644184544853e-05 1
5.50000000000000044409e-01  6.87500000000000055511e-02  2.11652760020243940753e-01  1.78917449254190064067e-05 1
5.56250000000000022204e-01  6.87500000000000055511e-02  2.10952959668121414749e-01  1.86643939577846307287e-05 1
5.62500000000000000000e-01  6.87500000000000055511e-02  2.10171832934343688626e-01  1.94298475409693249816e-05 1
5.68749999999999977796e-01  6.87500000000000055511e-02  2.09309680958185945210e-01  2.01878105281494413248e-05 1
5.74999999999999955591e-01  6.87500000000000055511e-02  2.08366836115632170223e-01  2.09379907247508878498e-05 1
5.81250000000000044409e-01  6.87500000000000055511e-02  2.07343661891300962141e-01  2.16800989381593645078e-05 1
5.87500000000000022204e-01  6.87500000000000055511e-02  2.06240552738336663241e-01  2.24138490676761836795e-05 1
5.93750000000000000000e-01  6.87500000000000055511e-02  2.05057933926339641673e-01  2.31389582154017947602e-05 1
5.99999999999999977796e-01  6.87500000000000055511e-02  2.03796261377344661847e-01  2.38551468673686706268e-05 1
6.06249999999999955591e-01  6.87500000000000055511e-02  2.02456021490166754306e-01  2.45621388888783709348e-05 1
6.12500000000000044409e-01  6.87500000000000055511e-02  2.01037730952752458080e-01  2.52596617636435816223e-05 1
6.18750000000000022204e-01  6.87500000000000055511e-02  1.99541936543146336547e-01  2.59474465393594311280e-05 1
6.25000000000000000000e-01  6.87500000000000055511e-02  1.97969214918550906468e-01  2.66252280780032712926e-05 1
6.31249999999999977796e-01  6.87500000000000055511e-02  1.96320172393079833695e-01  2.72927450926385706254e-05 1
6.37499999999999955591e-01  6.87500000000000055511e-02  1.94595444704017211945e-01  2.79497402431716501781e-05 1