Titile = 'Poisson'  
VARIABLES = X, Y, U, Error, Rank 
zone N= 966, E = 1600
DATAPACKING=POINT, ZONETYPE=FETRIANGLE
0.00000000000000000000e+00  3.12500000000000000000e-02  0.00000000000000000000e+00  0.00000000000000000000e+00 1
6.25000000000000034694e-03  3.12500000000000000000e-02  1.94590616054045599699e-03  2.14677714396158039051e-05 1
1.25000000000000006939e-02  3.12500000000000000000e-02  3.89052582421139979754e-03  4.23909536420769873788e-05 1
1.87499999999999993061e-02  3.12500000000000000000e-02  5.81259466753748094137e-03  4.22468447448766035168e-05 1
2.50000000000000013878e-02  3.12500000000000000000e-02  7.73242264497142530594e-03  4.20864488848184115088e-05 1
3.12500000000000000000e-02  3.12500000000000000000e-02  9.64926962628234741182e-03  4.19098278975713750549e-05 1
3.74999999999999986122e-02  3.12500000000000000000e-02  1.15623966304700571961e-02  4.17170498738447803611e-05 1
4.37499999999999972244e-02  3.12500000000000000000e-02  1.34710661106564929396e-02  4.15081891333279190404e-05 1
5.00000000000000027756e-02  3.12500000000000000000e-02  1.53745422384237353380e-02  4.12833261956846442331e-05 1
5.62500000000000013878e-02  3.12500000000000000000e-02  1.72720911874903633454e-02  4.10425477500170332590e-05 1
6.25000000000000000000e-02  3.12500000000000000000e-02  1.91629814166148458587e-02  4.07859466208353171890e-05 1
6.87500000000000055511e-02  3.12500000000000000000e-02  2.10464839516192533941e-02  4.05136217328898318168e-05 1
7.49999999999999972244e-02  3.12500000000000000000e-02  2.29218726664220905087e-02  4.02256780724780105274e-05 1
8.12500000000000027756e-02  3.12500000000000000000e-02  2.47884245629742365480e-02  3.99222266474416609405e-05 1
8.74999999999999944489e-02  3.12500000000000000000e-02  2.66454200499882248865e-02  3.96033844441805171765e-05 1
9.37500000000000000000e-02  3.12500000000000000000e-02  2.84921432203541630246e-02  3.92692743823204459819e-05 1
1.00000000000000005551e-01  3.12500000000000000000e-02  3.03278821271358266232e-02  3.89200252675671320990e-05 1
1.06249999999999997224e-01  3.12500000000000000000e-02  3.21519290580398603430e-02  3.85557717422144174968e-05 1
1.12500000000000002776e-01  3.12500000000000000000e-02  3.39635808082521736817e-02  3.81766542330089220236e-05 1
1.18749999999999994449e-01  3.12500000000000000000e-02  3.57621389515364804246e-02  3.77828188967699318823e-05 1
1.25000000000000000000e-01  3.12500000000000000000e-02  3.75469101094916268835e-02  3.73744175647047760513e-05 1
1.31250000000000005551e-01  3.12500000000000000000e-02  3.93172062188614016010e-02  3.69516076831749584741e-05 1
1.37500000000000011102e-01  3.12500000000000000000e-02  4.10723447967965837879e-02  3.65145522534804367609e-05 1
1.43749999999999988898e-01  3.12500000000000000000e-02  4.28116492039647550394e-02  3.60634197688058932840e-05 1
1.49999999999999994449e-01  3.12500000000000000000e-02  4.45344489054078293555e-02  3.55983841493281993884e-05 1
1.56250000000000000000e-01  3.12500000000000000000e-02  4.62400797290456605504e-02  3.51196246749022056299e-05 1
1.62500000000000005551e-01  3.12500000000000000000e-02  4.79278841217279441556e-02  3.46273259167959035487e-05 1
1.68750000000000011102e-01  3.12500000000000000000e-02  4.95972114027323565666e-02  3.41216776654218456599e-05 1
1.74999999999999988898e-01  3.12500000000000000000e-02  5.12474180146147359483e-02  3.36028748575828428713e-05 1
1.81249999999999994449e-01  3.12500000000000000000e-02  5.28778677713135913940e-02  3.30711175021286551967e-05 1
1.87500000000000000000e-01  3.12500000000000000000e-02  5.44879321034105260080e-02  3.25266106014979183847e-05 1
1.93750000000000005551e-01  3.12500000000000000000e-02  5.60769903004557507264e-02  3.19695640726633256712e-05 1
2.00000000000000011102e-01  3.12500000000000000000e-02  5.76444297502664640409e-02  3.14001926689441712703e-05 1
2.06249999999999988898e-01  3.12500000000000000000e-02  5.91896461750960126147e-02  3.08187158926664928060e-05 1
2.12499999999999994449e-01  3.12500000000000000000e-02  6.07120438645988302895e-02  3.02253579149563966766e-05 1
2.18750000000000000000e-01  3.12500000000000000000e-02  6.22110359054855732719e-02  2.96203474867140492677e-05 1
2.25000000000000005551e-01  3.12500000000000000000e-02  6.36860444077886750369e-02  2.90039178498097127701e-05 1
2.31250000000000011102e-01  3.12500000000000000000e-02  6.51365007276545476822e-02  2.83763066517006556921e-05 1
2.37499999999999988898e-01  3.12500000000000000000e-02  6.65618456865594426697e-02  2.77377558467462037584e-05 1
2.43749999999999994449e-01  3.12500000000000000000e-02  6.79615297868889217670e-02  2.70885116082919541469e-05 1
2.50000000000000000000e-01  3.12500000000000000000e-02  6.93350134237802062653e-02  2.64288242344812296380e-05 1
2.56249999999999977796e-01  3.12500000000000000000e-02  7.06817670931420144464e-02  2.57589480435471696040e-05 1
2.62500000000000011102e-01  3.12500000000000000000e-02  7.20012715958031207508e-02  2.50791412904349808599e-05 1
2.68749999999999988898e-01  3.12500000000000000000e-02  7.32930182376543698508e-02  2.43896660481746074822e-05 1
2.75000000000000022204e-01  3.12500000000000000000e-02  7.45565090257813423147e-02  2.36907881280695731263e-05 1
2.81250000000000000000e-01  3.12500000000000000000e-02  7.57912568604281883244e-02  2.29827769555324135098e-05 1
2.87499999999999977796e-01  3.12500000000000000000e-02  7.69967857228054525232e-02  2.22659054876367390463e-05 1
2.93750000000000011102e-01  3.12500000000000000000e-02  7.81726308585830587106e-02  2.15404500866211989774e-05 1
2.99999999999999988898e-01  3.12500000000000000000e-02  7.93183389570835256643e-02  2.08066904349574199884e-05 1
3.06250000000000022204e-01  3.12500000000000000000e-02  8.04334683260192195853e-02  2.00649094048571674520e-05 1
3.12500000000000000000e-01  3.12500000000000000000e-02  8.15175890617965692719e-02  1.93153929726463946537e-05 1
3.18749999999999977796e-01  3.12500000000000000000e-02  8.25702832152301335888e-02  1.85584300865515583467e-05 1
3.25000000000000011102e-01  3.12500000000000000000e-02  8.35911449526897387674e-02  1.77943125750645858574e-05 1
3.31249999999999988898e-01  3.12500000000000000000e-02  8.45797807125374667692e-02  1.70233350149512352445e-05 1
3.37500000000000022204e-01  3.12500000000000000000e-02  8.55358093568730909473e-02  1.62457946374372497189e-05 1
3.43750000000000000000e-01  3.12500000000000000000e-02  8.64588623184509713626e-02  1.54619911947456722956e-05 1
3.49999999999999977796e-01  3.12500000000000000000e-02  8.73485837427873945682e-02  1.46722268621196638705e-05 1
3.56250000000000011102e-01  3.12500000000000000000e-02  8.82046306253327916380e-02  1.38768061048455404460e-05 1
3.62499999999999988898e-01  3.12500000000000000000e-02  8.90266729437213244491e-02  1.30760355757930657461e-05 1
3.68750000000000022204e-01  3.12500000000000000000e-02  8.98143937849896767389e-02  1.22702239859079353934e-05 1
3.75000000000000000000e-01  3.12500000000000000000e-02  9.05674894677583053326e-02  1.14596819906637170661e-05 1
3.81249999999999977796e-01  3.12500000000000000000e-02  9.12856696593074973256e-02  1.06447220712402312870e-05 1
3.87500000000000011102e-01  3.12500000000000000000e-02  9.19686574874978984839e-02  9.82565840583482508208e-06 1
3.93749999999999988898e-01  3.12500000000000000000e-02  9.26161896475264784234e-02  9.00280676514875199956e-06 1
4.00000000000000022204e-01  3.12500000000000000000e-02  9.32280165034147373371e-02  8.17648436962636893099e-06 1
4.06250000000000000000e-01  3.12500000000000000000e-02  9.38039021842644732407e-02  7.34700978370639301573e-06 1
4.12499999999999977796e-01  3.12500000000000000000e-02  9.43436246751857415793e-02  6.51470278816013159684e-06 1
4.18750000000000011102e-01  3.12500000000000000000e-02  9.48469759028761488784e-02  5.67988424510224021446e-06 1
4.24999999999999988898e-01  3.12500000000000000000e-02  9.53137618158704236215e-02  4.84287600768795734041e-06 1
4.31250000000000022204e-01  3.12500000000000000000e-02  9.57438024592923569989e-02  4.00400073745366125166e-06 1
4.37500000000000000000e-01  3.12500000000000000000e-02  9.61369320443102581830e-02  3.16358185938059310871e-06 1
4.43749999999999977796e-01  3.12500000000000000000e-02  9.64929990119675062843e-02  2.32194335285373920641e-06 1
4.50000000000000011102e-01  3.12500000000000000000e-02  9.68118660916820472639e-02  1.47940969758009188695e-06 1
4.56249999999999988898e-01  3.12500000000000000000e-02  9.70934103541158943784e-02  6.36305697493400046483e-07 1
4.62500000000000022204e-01  3.12500000000000000000e-02  9.73375232586060068485e-02  2.07043605218726334272e-07 1
4.68750000000000000000e-01  3.12500000000000000000e-02  9.75441106949720415642e-02  1.05031309208247769504e-06 1
4.74999999999999977796e-01  3.12500000000000000000e-02  9.77130930198279595844e-02  1.89317766344232474296e-06 1
4.81250000000000011102e-01  3.12500000000000000000e-02  9.78444050872742526748e-02  2.73531237549029526690e-06 1
4.87499999999999988898e-01  3.12500000000000000000e-02  9.79379962740022369516e-02  3.57639257629605022970e-06 1
4.93750000000000022204e-01  3.12500000000000000000e-02  9.79938304988323960476e-02  4.41609400889109160460e-06 1
5.00000000000000000000e-01  3.12500000000000000000e-02  9.80118862366072263193e-02  5.25409295337730952724e-06 1
5.06249999999999977796e-01  3.12500000000000000000e-02  9.79921565265001043299e-02  6.09006634118280931744e-06 1
5.12499999999999955591e-01  3.12500000000000000000e-02  9.79346489746802800758e-02  6.92369189825292608020e-06 1
5.18750000000000044409e-01  3.12500000000000000000e-02  9.78393857514128217900e-02  7.75464823692117999343e-06 1
5.25000000000000022204e-01  3.12500000000000000000e-02  9.77064035824786042417e-02  8.58261501279766747530e-06 1
5.31250000000000000000e-01  3.12500000000000000000e-02  9.75357537350406561538e-02  9.40727302348176586122e-06 1
5.37499999999999977796e-01  3.12500000000000000000e-02  9.73275019978525335329e-02  1.02283043586920419088e-05 1
5.43749999999999955591e-01  3.12500000000000000000e-02  9.70817286559383513245e-02  1.10453924800496539049e-05 1
5.50000000000000044409e-01  3.12500000000000000000e-02  9.67985284595871409152e-02  1.18582223973123790373e-05 1
5.56250000000000022204e-01  3.12500000000000000000e-02  9.64780105878758897919e-02  1.26664807387627531554e-05 1
5.62500000000000000000e-01  3.12500000000000000000e-02  9.61202986065314568531e-02  1.34698559194207367895e-05 1
5.68749999999999977796e-01  3.12500000000000000000e-02  9.57255304203492862758e-02  1.42680382056170618199e-05 1
5.74999999999999955591e-01  3.12500000000000000000e-02  9.52938582199657768790e-02  1.50607198969726630011e-05 1
5.81250000000000044409e-01  3.12500000000000000000e-02  9.48254484232423089374e-02  1.58475953887377007945e-05 1
5.87500000000000022204e-01  3.12500000000000000000e-02  9.43204816110588956102e-02  1.66283613386858375449e-05 1
5.93750000000000000000e-01  3.12500000000000000000e-02  9.37791524577493845749e-02  1.74027167313822728190e-05 1
5.99999999999999977796e-01  3.12500000000000000000e-02  9.32016696559949259226e-02  1.81703630501850454948e-05 1
6.06249999999999955591e-01  3.12500000000000000000e-02  9.25882558364181929011e-02  1.89310043431506480616e-05 1
6.12500000000000044409e-01  3.12500000000000000000e-02  9.19391474817107950956e-02  1.96843473812546854163e-05 1
6.18750000000000022204e-01  3.12500000000000000000e-02  9.12545948355150682296e-02  2.04301017212027424819e-05 1
6.25000000000000000000e-01  3.12500000000000000000e-02  9.05348618058943593878e-02  2.11679798732822277429e-05 1
6.31249999999999977796e-01  3.12500000000000000000e-02  8.97802258636410943637e-02  2.18976973626744397805e-05 1
6.37499999999999955591e-01  3.12500000000000000000e-02  8.89909779352696661547e-02  2.26189728758929842201e-05 1
6.43750000000000044409e-01  3.12500000000000000000e-02  8.81674222908849641867e-02  2.33315283429819109173e-05 1
6.50000000000000022204e-01  3.12500000000000000000e-02  8.73098764268648019904e-02  2.40350890604867917233e-05 1
6.56250000000000000000e-01  3.12500000000000000000e-02  8.64186709434605349056e-02  2.47293837956907847087e-05 1
6.62499999999999977796e-01  3.12500000000000000000e-02  8.54941494173564880965e-02  2.54141448791794788420e-05 1
6.68749999999999955591e-01  3.12500000000000000000e-02  8.45366682691906928815e-02  2.60891083318365302191e-05 1
6.75000000000000044409e-01  3.12500000000000000000e-02  8.35465966261825648820e-02  2.67540139321092995672e-05 1
6.81250000000000022204e-01  3.12500000000000000000e-02  8.25243161797914043243e-02  2.74086053521915840037e-05 1
6.87500000000000000000e-01  3.12500000000000000000e-02  8.14702210385930963854e-02  2.80526302308542474506e-05 1
6.93749999999999977796e-01  3.12500000000000000000e-02  8.03847175763227062006e-02  2.86858402916562171825e-05 1
6.99999999999999955591e-01  3.12500000000000000000e-02  7.92682242752379556672e-02  2.93079914106125771767e-05 1
7.06250000000000044409e-01  3.12500000000000000000e-02  7.81211715647536220075e-02  2.99188437428155040720e-05 1
7.12500000000000022204e-01  3.12500000000000000000e-02  7.69440016555278522015e-02  3.05181617899635826419e-05 1
7.18750000000000000000e-01  3.12500000000000000000e-02  7.57371683689652269722e-02  3.11057145074428165188e-05 1
7.24999999999999977796e-01  3.12500000000000000000e-02  7.45011369622767954946e-02  3.16812753764772470078e-05 1
7.31249999999999955591e-01  3.12500000000000000000e-02  7.32363839490934032117e-02  3.22446225128336649846e-05 1
7.37500000000000044409e-01  3.12500000000000000000e-02  7.19433969157806940675e-02  3.27955387319778246535e-05 1
7.43750000000000022204e-01  3.12500000000000000000e-02  7.06226743334500695060e-02  3.33338116484255264638e-05 1
7.50000000000000000000e-01  3.12500000000000000000e-02  6.92747253657992334563e-02  3.38592337465054571410e-05 1
7.56249999999999977796e-01  3.12500000000000000000e-02  6.79000696728178088080e-02  3.43716024628210048419e-05 1
7.62499999999999955591e-01  3.12500000000000000000e-02  6.64992372104389745102e-02  3.48707202737635890699e-05 1
7.68750000000000044409e-01  3.12500000000000000000e-02  6.50727680262469243555e-02  3.53563947558949154271e-05 1
7.75000000000000022204e-01  3.12500000000000000000e-02  6.36212120512609224932e-02  3.58284386779567087800e-05 1
7.81250000000000000000e-01  3.12500000000000000000e-02  6.21451288879437957480e-02  3.62866700550634746492e-05 1
7.87499999999999977796e-01  3.12500000000000000000e-02  6.06450875944562206588e-02  3.67309122276740507296e-05 1
7.93749999999999955591e-01  3.12500000000000000000e-02  5.91216664652684451009e-02  3.71609939349079598792e-05 1
8.00000000000000044409e-01  3.12500000000000000000e-02  5.75754528082242714171e-02  3.75767493732623303337e-05 1
8.06250000000000022204e-01  3.12500000000000000000e-02  5.60070427181259752891e-02  3.79780182571121116553e-05 1
8.12500000000000000000e-01  3.12500000000000000000e-02  5.44170408469163910392e-02  3.83646458926370503839e-05 1
8.18749999999999977796e-01  3.12500000000000000000e-02  5.28060601705837157072e-02  3.87364832277678483585e-05 1
8.24999999999999955591e-01  3.12500000000000000000e-02  5.11747217528455075608e-02  3.90933869116594223669e-05 1
8.31250000000000044409e-01  3.12500000000000000000e-02  4.95236545057187449448e-02  3.94352193481897761451e-05 1
8.37500000000000022204e-01  3.12500000000000000000e-02  4.78534949470516488002e-02  3.97618487594925129613e-05 1
8.43750000000000000000e-01  3.12500000000000000000e-02  4.61648869551491772278e-02  4.00731492216019336006e-05 1
8.49999999999999977796e-01  3.12500000000000000000e-02  4.44584815205387451353e-02  4.03690007197629596725e-05 1
8.56249999999999955591e-01  3.12500000000000000000e-02  4.27349364949966975535e-02  4.06492891993001648210e-05 1
8.62500000000000044409e-01  3.12500000000000000000e-02  4.09949163379374759142e-02  4.09139066056135591865e-05 1
8.68750000000000022204e-01  3.12500000000000000000e-02  3.92390918602542673743e-02  4.11627509239870237323e-05 1
8.75000000000000000000e-01  3.12500000000000000000e-02  3.74681399657132499503e-02  4.13957262136790959950e-05 1
8.81249999999999977796e-01  3.12500000000000000000e-02  3.56827433899729803968e-02  4.16127426667300959195e-05 1
8.87499999999999955591e-01  3.12500000000000000000e-02  3.38835904374058805022e-02  4.18137166133189519535e-05 1
8.93750000000000044409e-01  3.12500000000000000000e-02  3.20713747157197123783e-02  4.19985705779196694110e-05 1
9.00000000000000022204e-01  3.12500000000000000000e-02  3.02467948685763120265e-02  4.21672332919578729538e-05 1
9.06250000000000000000e-01  3.12500000000000000000e-02  2.84105543062343479654e-02  4.23196397375015520570e-05 1
9.12499999999999977796e-01  3.12500000000000000000e-02  2.65633609343917664880e-02  4.24557311523091063243e-05 1
9.18749999999999955591e-01  3.12500000000000000000e-02  2.47059268812473004084e-02  4.25754550795187647338e-05 1
9.25000000000000044409e-01  3.12500000000000000000e-02  2.28389682229959180282e-02  4.26787653537083477850e-05 1
9.31250000000000022204e-01  3.12500000000000000000e-02  2.09632047077315704364e-02  4.27656221547896564505e-05 1
9.37500000000000000000e-01  3.12500000000000000000e-02  1.90793594780014619250e-02  4.28359919925833110277e-05 1
9.43749999999999977796e-01  3.12500000000000000000e-02  1.71881587919991626889e-02  4.28898477412044398793e-05 1
9.49999999999999955591e-01  3.12500000000000000000e-02  1.52903317435919630651e-02  4.29271686360997717369e-05 1
9.56250000000000044409e-01  3.12500000000000000000e-02  1.33866099812318568862e-02  4.29479402913098690098e-05 1
9.62500000000000022204e-01  3.12500000000000000000e-02  1.14777274258994945594e-02  4.29521546967074480117e-05 1
9.68750000000000000000e-01  3.12500000000000000000e-02  9.56441998815490621033e-03  4.29398102298906431118e-05 1
9.74999999999999977796e-01  3.12500000000000000000e-02  7.64742528443785804515e-03  4.29109116487609923429e-05 1
9.81249999999999955591e-01  3.12500000000000000000e-02  5.72748235269864361396e-03  4.28654700940058266956e-05 1
9.87500000000000044409e-01  3.12500000000000000000e-02  3.80533136748463420712e-03  4.28035030846781947012e-05 1
9.93750000000000022204e-01  3.12500000000000000000e-02  1.90276430317086486278e-03  2.16740859299980985486e-05 1
1.00000000000000000000e+00  3.12500000000000000000e-02  0.00000000000000000000e+00  1.20036377166173334588e-17 1
0.00000000000000000000e+00  3.74999999999999986122e-02  0.00000000000000000000e+00  0.00000000000000000000e+00 1
6.25000000000000034694e-03  3.74999999999999986122e-02  2.32909447104938599829e-03  2.14013567395670255278e-05 1
1.25000000000000006939e-02  3.74999999999999986122e-02  4.65675585931588607858e-03  4.22592903207607076266e-05 1
1.87499999999999993061e-02  3.74999999999999986122e-02  6.96161579601407148887e-03  4.20947486019463898432e-05 1
2.50000000000000013878e-02  3.74999999999999986122e-02  9.26379189730244280432e-03  4.19139785562006733644e-05 1
3.12500000000000000000e-02  3.74999999999999986122e-02  1.15623966304700589308e-02  4.17170498738465150845e-05 1
3.74999999999999986122e-02  3.74999999999999986122e-02  1.38565438396363697915e-02  4.15040384746708651553e-05 1
4.37499999999999972244e-02  3.74999999999999986122e-02  1.61453490873811819628e-02  4.12750264786529430516e-05 1
5.00000000000000027756e-02  3.74999999999999986122e-02  1.84279299957119148401e-02  4.10301021740895610623e-05 1
5.62500000000000013878e-02  3.74999999999999986122e-02  2.07034065862377117395e-02  4.07693599841982279308e-05 1
6.25000000000000000000e-02  3.74999999999999986122e-02  2.29709016194171236624e-02  4.04929004299246775300e-05 1
6.87500000000000055511e-02  3.74999999999999986122e-02  2.52295409327510170017e-02  4.02008300915794591912e-05 1
7.49999999999999972244e-02  3.74999999999999986122e-02  2.74784537777893571320e-02  3.98932615682801028356e-05 1
8.12500000000000027756e-02  3.74999999999999986122e-02  2.97167731558197235897e-02  3.95703134328795336216e-05 1
8.74999999999999944489e-02  3.74999999999999986122e-02  3.19436361521143533104e-02  3.92321101888651324607e-05 1
9.37500000000000000000e-02  3.74999999999999986122e-02  3.41581842685971595608e-02  3.88787822192954157785e-05 1
1.00000000000000005551e-01  3.74999999999999986122e-02  3.63595637548134870132e-02  3.85104657389181981308e-05 1
1.06249999999999997224e-01  3.74999999999999986122e-02  3.85469259370665798259e-02  3.81273027410949927329e-05 1
1.12500000000000002776e-01  3.74999999999999986122e-02  4.07194275455966328559e-02  3.77294409422621046524e-05 1
1.18749999999999994449e-01  3.74999999999999986122e-02  4.28762310396780532695e-02  3.73170337256770179302e-05 1
1.25000000000000000000e-01  3.74999999999999986122e-02  4.50165049305073436403e-02  3.68902400822573861561e-05 1
1.31250000000000005551e-01  3.74999999999999986122e-02  4.71394241017576917652e-02  3.64492245491648825251e-05 1
1.37500000000000011102e-01  3.74999999999999986122e-02  4.92441701276764842721e-02  3.59941571458008424678e-05 1
1.43749999999999988898e-01  3.74999999999999986122e-02  5.13299315886057636038e-02  3.55252133100378286734e-05 1
1.49999999999999994449e-01  3.74999999999999986122e-02  5.33959043837973906799e-02  3.50425738279494525251e-05 1
1.56250000000000000000e-01  3.74999999999999986122e-02  5.54412920414123489010e-02  3.45464247673704649699e-05 1
1.62500000000000005551e-01  3.74999999999999986122e-02  5.74653060255713443727e-02  3.40369574016799458782e-05 1
1.68750000000000011102e-01  3.74999999999999986122e-02  5.94671660403554291907e-02  3.35143681410438043500e-05 1
1.74999999999999988898e-01  3.74999999999999986122e-02  6.14461003306216654862e-02  3.29788584534848605578e-05 1
1.81249999999999994449e-01  3.74999999999999986122e-02  6.34013459795317591006e-02  3.24306347895125801628e-05 1
1.87500000000000000000e-01  3.74999999999999986122e-02  6.53321492026647798745e-02  3.18699084963236511925e-05 1
1.93750000000000005551e-01  3.74999999999999986122e-02  6.72377656386277944289e-02  3.12968957486697840764e-05 1
2.00000000000000011102e-01  3.74999999999999986122e-02  6.91174606360065030275e-02  3.07118174507070573753e-05 1
2.06249999999999988898e-01  3.74999999999999986122e-02  7.09705095365989191425e-02  3.01148991624089479302e-05 1
2.12499999999999994449e-01  3.74999999999999986122e-02  7.27961979547810389413e-02  2.95063710086945762967e-05 1
2.18750000000000000000e-01  3.74999999999999986122e-02  7.45938220529103884759e-02  2.88864675850458718642e-05 1
2.25000000000000005551e-01  3.74999999999999986122e-02  7.63626888126823083480e-02  2.82554278805552394616e-05 1
2.31250000000000011102e-01  3.74999999999999986122e-02  7.81021163022847658697e-02  2.76134951688183916119e-05 1
2.37499999999999988898e-01  3.74999999999999986122e-02  7.98114339393110883147e-02  2.69609169292056582989e-05 1
2.43749999999999994449e-01  3.74999999999999986122e-02  8.14899827492752276692e-02  2.62979447444161573699e-05 1
2.50000000000000000000e-01  3.74999999999999986122e-02  8.31371156196548388717e-02  2.56248341993781103554e-05 1
2.56249999999999977796e-01  3.74999999999999986122e-02  8.47521975493780999056e-02  2.49418447953453359389e-05 1
2.62500000000000011102e-01  3.74999999999999986122e-02  8.63346058936115406945e-02  2.42492398326299429812e-05 1
2.68749999999999988898e-01  3.74999999999999986122e-02  8.78837306038216109494e-02  2.35472863293617606928e-05 1
2.75000000000000022204e-01  3.74999999999999986122e-02  8.93989744629374166740e-02  2.28362548957555810958e-05 1
2.81250000000000000000e-01  3.74999999999999986122e-02  9.08797533156129044851e-02  2.21164196536199897380e-05 1
2.87499999999999977796e-01  3.74999999999999986122e-02  9.23254962934086376158e-02  2.13880581093200961007e-05 1
2.93750000000000011102e-01  3.74999999999999986122e-02  9.37356460348882508660e-02  2.06514510626143454886e-05 1
2.99999999999999988898e-01  3.74999999999999986122e-02  9.51096589004807591028e-02  1.99068824873610550341e-05 1
3.06250000000000022204e-01  3.74999999999999986122e-02  9.64470051820721513414e-02  1.91546394300995403981e-05 1
3.12500000000000000000e-01  3.74999999999999986122e-02  9.77471693072147623793e-02  1.83950118963355224722e-05 1
3.18749999999999977796e-01  3.74999999999999986122e-02  9.90096500378855465252e-02  1.76282927338428097030e-05 1
3.25000000000000011102e-01  3.74999999999999986122e-02  1.00233960663731871965e-01  1.68547775289268342291e-05 1
3.31249999999999988898e-01  3.74999999999999986122e-02  1.01419629189702556471e-01  1.60747644873393547016e-05 1
3.37500000000000022204e-01  3.74999999999999986122e-02  1.02566198518008480645e-01  1.52885543168029824912e-05 1
3.43750000000000000000e-01  3.74999999999999986122e-02  1.03673226624349135161e-01  1.44964501178346250043e-05 1
3.49999999999999977796e-01  3.74999999999999986122e-02  1.04740286728316728260e-01  1.36987572621066755474e-05 1
3.56250000000000011102e-01  3.74999999999999986122e-02  1.05766967457927144047e-01  1.28957832737780497823e-05 1
3.62499999999999988898e-01  3.74999999999999986122e-02  1.06752873008216508932e-01  1.20878377157934702169e-05 1
3.68750000000000022204e-01  3.74999999999999986122e-02  1.07697623293830799240e-01  1.12752320696740682138e-05 1
3.75000000000000000000e-01  3.74999999999999986122e-02  1.08600854095539878230e-01  1.04582795995289412616e-05 1
3.81249999999999977796e-01  3.74999999999999986122e-02  1.09462217200688854968e-01  9.63729526902434852076e-06 1
3.87500000000000011102e-01  3.74999999999999986122e-02  1.10281380537398013275e-01  8.81259557732050335943e-06 1
3.93749999999999988898e-01  3.74999999999999986122e-02  1.11058028302607678106e-01  7.98449846202420321362e-06 1
4.00000000000000022204e-01  3.74999999999999986122e-02  1.11791861083816848610e-01  7.15332316694738956642e-06 1
4.06250000000000000000e-01  3.74999999999999986122e-02  1.12482595974528309934e-01  6.31939013506777058637e-06 1
4.12499999999999977796e-01  3.74999999999999986122e-02  1.13129966683284247098e-01  5.48302085479068779250e-06 1
4.18750000000000011102e-01  3.74999999999999986122e-02  1.13733723636357350606e-01  4.64453776653772631988e-06 1
4.24999999999999988898e-01  3.74999999999999986122e-02  1.14293634073945146734e-01  3.80426411748790993528e-06 1
4.31250000000000022204e-01  3.74999999999999986122e-02  1.14809482139928253908e-01  2.96252386178252891114e-06 1
4.37500000000000000000e-01  3.74999999999999986122e-02  1.15281068965033525742e-01  2.11964148229271120982e-06 1
4.43749999999999977796e-01  3.74999999999999986122e-02  1.15708212743589861082e-01  1.27594195320490655376e-06 1
4.50000000000000011102e-01  3.74999999999999986122e-02  1.16090748803520049659e-01  4.31750517226880958788e-07 1
4.56249999999999988898e-01  3.74999999999999986122e-02  1.16428529669903635391e-01  4.12607361194305966023e-07 1
4.62500000000000022204e-01  3.74999999999999986122e-02  1.16721425121771971156e-01  1.25680618073831240622e-06 1
4.68750000000000000000e-01  3.74999999999999986122e-02  1.16969322242371789877e-01  2.10052046772934986052e-06 1
4.74999999999999977796e-01  3.74999999999999986122e-02  1.17172125462629270198e-01  2.94342496916233375970e-06 1
4.81250000000000011102e-01  3.74999999999999986122e-02  1.17329756598046591742e-01  3.78519472518656918680e-06 1
4.87499999999999988898e-01  3.74999999999999986122e-02  1.17442154878823951103e-01  4.62550521394822222732e-06 1
4.93750000000000022204e-01  3.74999999999999986122e-02  1.17509276973281104328e-01  5.46403248320725953846e-06 1
5.00000000000000000000e-01  3.74999999999999986122e-02  1.17531097004576742804e-01  6.30045326090178381406e-06 1
5.06249999999999977796e-01  3.74999999999999986122e-02  1.17507606560663030448e-01  7.13444510128113940084e-06 1
5.12499999999999955591e-01  3.74999999999999986122e-02  1.17438814697566049072e-01  7.96568647185025291435e-06 1
5.18750000000000044409e-01  3.74999999999999986122e-02  1.17324747935852319314e-01  8.79385691945899772293e-06 1
5.25000000000000022204e-01  3.74999999999999986122e-02  1.17165450250433803014e-01  9.61863716462951767738e-06 1
5.31250000000000000000e-01  3.74999999999999986122e-02  1.16960983053587569414e-01  1.04397092519636913721e-05 1
5.37499999999999977796e-01  3.74999999999999986122e-02  1.16711425171333177397e-01  1.12567566195320711842e-05 1
5.43749999999999955591e-01  3.74999999999999986122e-02  1.16416872812959579231e-01  1.20694643052504657632e-05 1
5.50000000000000044409e-01  3.74999999999999986122e-02  1.16077439534031587320e-01  1.28775189712215798465e-05 1
5.56250000000000022204e-01  3.74999999999999986122e-02  1.15693256192514887237e-01  1.36806091217689385076e-05 1
5.62500000000000000000e-01  3.74999999999999986122e-02  1.15264470898427978662e-01  1.44784251232543681454e-05 1
5.68749999999999977796e-01  3.74999999999999986122e-02  1.14791248956636143808e-01  1.52706594303275711155e-05 1
5.74999999999999955591e-01  3.74999999999999986122e-02  1.14273772803236028928e-01  1.60570065916437743070e-05 1
5.81250000000000044409e-01  3.74999999999999986122e-02  1.13712241935103472446e-01  1.68371634873404341093e-05 1
5.87500000000000022204e-01  3.74999999999999986122e-02  1.13106872833108162979e-01  1.76108293212934308158e-05 1
5.93750000000000000000e-01  3.74999999999999986122e-02  1.12457898878533413267e-01  1.83777058598288967062e-05 1
5.99999999999999977796e-01  3.74999999999999986122e-02  1.11765570263220301306e-01  1.91374974296137922991e-05 1
6.06249999999999955591e-01  3.74999999999999986122e-02  1.11030153893005301136e-01  1.98899111403666450926e-05 1
6.12500000000000044409e-01  3.74999999999999986122e-02  1.10251933284919723111e-01  2.06346569009557834207e-05 1
6.18750000000000022204e-01  3.74999999999999986122e-02  1.09431208457798190281e-01  2.13714476216542159648e-05 1
6.25000000000000000000e-01  3.74999999999999986122e-02  1.08568295816709015078e-01  2.20999992313342108474e-05 1
6.31249999999999977796e-01  3.74999999999999986122e-02  1.07663528030887023501e-01  2.28200308741016710812e-05 1
6.37499999999999955591e-01  3.74999999999999986122e-02  1.06717253905536532677e-01  2.35312649642105409242e-05 1