Titile = 'Poisson'  
VARIABLES = X, Y, U, Error, Rank 
zone N= 966, E = 1600
DATAPACKING=POINT, ZONETYPE=FETRIANGLE
0.00000000000000000000e+00  2.50000000000000000000e-01  0.00000000000000000000e+00  0.00000000000000000000e+00 8
6.25000000000000034694e-03  2.50000000000000000000e-01  1.38976996430119001391e-02  1.45825643704383667298e-05 8
1.25000000000000006939e-02  2.50000000000000000000e-01  2.77896603927612756424e-02  2.87784413893800439244e-05 8
1.87499999999999993061e-02  2.50000000000000000000e-01  4.16559504074883041325e-02  2.80059318307837590289e-05 8
2.50000000000000013878e-02  2.50000000000000000000e-01  5.55061812603758544804e-02  2.72226254522181521089e-05 8
3.12500000000000000000e-02  2.50000000000000000000e-01  6.93350134237802340209e-02  2.64288242345089852137e-05 8
3.74999999999999986122e-02  2.50000000000000000000e-01  8.31371156196548249939e-02  2.56248341993642325676e-05 8
4.37499999999999972244e-02  2.50000000000000000000e-01  9.69071668748745923549e-02  2.48109653067513091784e-05 8
5.00000000000000027756e-02  2.50000000000000000000e-01  1.10639858572547170046e-01  2.39875313100268439115e-05 8
5.62500000000000013878e-02  2.50000000000000000000e-01  1.24329896498617253897e-01  2.31548496665984204768e-05 8
6.25000000000000000000e-02  2.50000000000000000000e-01  1.37972002882860406148e-01  2.23132413889326475243e-05 8
6.87500000000000055511e-02  2.50000000000000000000e-01  1.51560918433574165487e-01  2.14630309310070988005e-05 8
7.49999999999999972244e-02  2.50000000000000000000e-01  1.65091404365133365140e-01  2.06045460617032549777e-05 8
8.12500000000000027756e-02  2.50000000000000000000e-01  1.78558244417656553082e-01  1.97381177529654117109e-05 8
8.74999999999999944489e-02  2.50000000000000000000e-01  1.91956246867944269052e-01  1.88640800231898442263e-05 8
9.37500000000000000000e-02  2.50000000000000000000e-01  2.05280246531005711175e-01  1.79827698270629277033e-05 8
1.00000000000000005551e-01  2.50000000000000000000e-01  2.18525106751348702216e-01  1.70945269382105635714e-05 8
1.06249999999999997224e-01  2.50000000000000000000e-01  2.31685721383214970892e-01  1.61996937753094982781e-05 8
1.12500000000000002776e-01  2.50000000000000000000e-01  2.44757016759152568053e-01  1.52986153259815349514e-05 8
1.18749999999999994449e-01  2.50000000000000000000e-01  2.57733953645969793289e-01  1.43916389723774962306e-05 8
1.25000000000000000000e-01  2.50000000000000000000e-01  2.70611529187464672219e-01  1.34791143662216228449e-05 8
1.31250000000000005551e-01  2.50000000000000000000e-01  2.83384778833134731713e-01  1.25613933077972639296e-05 8
1.37500000000000011102e-01  2.50000000000000000000e-01  2.96048778252087640972e-01  1.16388295920422102370e-05 8
1.43749999999999988898e-01  2.50000000000000000000e-01  3.08598645231482615614e-01  1.07117788904487198920e-05 8
1.49999999999999994449e-01  2.50000000000000000000e-01  3.21029541558666586809e-01  9.78059856354684953317e-06 8
1.56250000000000000000e-01  2.50000000000000000000e-01  3.33336674886542894125e-01  8.84564766967521620700e-06 8
1.62500000000000005551e-01  2.50000000000000000000e-01  3.45515300580875817094e-01  7.90728658933703698608e-06 8
1.68750000000000011102e-01  2.50000000000000000000e-01  3.57560723549651238162e-01  6.96587710036222773624e-06 8
1.74999999999999988898e-01  2.50000000000000000000e-01  3.69468300053023501750e-01  6.02178213798820749503e-06 8
1.81249999999999994449e-01  2.50000000000000000000e-01  3.81233439493570747114e-01  5.07536565996780097976e-06 8
1.87500000000000000000e-01  2.50000000000000000000e-01  3.92851606186097712659e-01  4.12699254670467752248e-06 8
1.93750000000000005551e-01  2.50000000000000000000e-01  4.04318321106150846411e-01  3.17702838231737061392e-06 8
2.00000000000000011102e-01  2.50000000000000000000e-01  4.15629163616867081110e-01  2.22583941367204829476e-06 8
2.06249999999999988898e-01  2.50000000000000000000e-01  4.26779773173145360321e-01  1.27379234077240610645e-06 8
2.12499999999999994449e-01  2.50000000000000000000e-01  4.37765851002767547584e-01  3.21254223278888417781e-07 8
2.18750000000000000000e-01  2.50000000000000000000e-01  4.48583161763533966315e-01  6.31407784112969494572e-07 8
2.25000000000000005551e-01  2.50000000000000000000e-01  4.59227535176283618856e-01  1.58382635784271030843e-06 8
2.31250000000000011102e-01  2.50000000000000000000e-01  4.69694867632433010751e-01  2.53563433039172281269e-06 8
2.37499999999999988898e-01  2.50000000000000000000e-01  4.79981123776052676089e-01  3.48646477438263602266e-06 8
2.43749999999999994449e-01  2.50000000000000000000e-01  4.90082338059634248228e-01  4.43595108395866688511e-06 8
2.50000000000000000000e-01  2.50000000000000000000e-01  4.99994616272669389900e-01  5.38372733049907736813e-06 8
2.56249999999999977796e-01  2.50000000000000000000e-01  5.09714137043412063299e-01  6.32942793443724838198e-06 8
2.62500000000000011102e-01  2.50000000000000000000e-01  5.19237153311318810900e-01  7.27268857692031645001e-06 8
2.68749999999999988898e-01  2.50000000000000000000e-01  5.28559993772710012827e-01  8.21314524235283727194e-06 8
2.75000000000000022204e-01  2.50000000000000000000e-01  5.37679064294673048074e-01  9.15043581339869405156e-06 8
2.81250000000000000000e-01  2.50000000000000000000e-01  5.46590849302371339924e-01  1.00841985073429896147e-05 8
2.87499999999999977796e-01  2.50000000000000000000e-01  5.55291913132604175729e-01  1.10140737776820429872e-05 8
2.93750000000000011102e-01  2.50000000000000000000e-01  5.63778901360089013117e-01  1.19397026835388331278e-05 8
2.99999999999999988898e-01  2.50000000000000000000e-01  5.72048542088895661806e-01  1.28607287885884602474e-05 8
3.06250000000000022204e-01  2.50000000000000000000e-01  5.80097647215314538016e-01  1.37767968085844572101e-05 8
3.12500000000000000000e-01  2.50000000000000000000e-01  5.87923113656209195277e-01  1.46875534701162990814e-05 8
3.18749999999999977796e-01  2.50000000000000000000e-01  5.95521924544969216697e-01  1.55926479922241512099e-05 8
3.25000000000000011102e-01  2.50000000000000000000e-01  6.02891150395766906023e-01  1.64917310240264569643e-05 8
3.31249999999999988898e-01  2.50000000000000000000e-01  6.10027950231264659564e-01  1.73844564440583937426e-05 8
3.37500000000000022204e-01  2.50000000000000000000e-01  6.16929572679784543610e-01  1.82704795761434724000e-05 8
3.43750000000000000000e-01  2.50000000000000000000e-01  6.23593357033992767846e-01  1.91494593427821158116e-05 8
3.49999999999999977796e-01  2.50000000000000000000e-01  6.30016734278676771019e-01  2.00210563736646918187e-05 8
3.56250000000000011102e-01  2.50000000000000000000e-01  6.36197228079140808532e-01  2.08849351449602593789e-05 8
3.62499999999999988898e-01  2.50000000000000000000e-01  6.42132455737801088880e-01  2.17407621874166068210e-05 8
3.68750000000000022204e-01  2.50000000000000000000e-01  6.47820129111181364223e-01  2.25882077952155313483e-05 8
3.75000000000000000000e-01  2.50000000000000000000e-01  6.53258055492877853787e-01  2.34269453103230773650e-05 8
3.81249999999999977796e-01  2.50000000000000000000e-01  6.58444138459016281573e-01  2.42566511220454472664e-05 8
3.87500000000000011102e-01  2.50000000000000000000e-01  6.63376378675472944124e-01  2.50770057816929181627e-05 8
3.93749999999999988898e-01  2.50000000000000000000e-01  6.68052874670275742552e-01  2.58876925058881823816e-05 8
4.00000000000000022204e-01  2.50000000000000000000e-01  6.72471823564668835793e-01  2.66883992884325849104e-05 8
4.06250000000000000000e-01  2.50000000000000000000e-01  6.76631521770192256859e-01  2.74788169840611828931e-05 8
4.12499999999999977796e-01  2.50000000000000000000e-01  6.80530365643676971033e-01  2.82586411990415342643e-05 8
4.18750000000000011102e-01  2.50000000000000000000e-01  6.84166852106806500089e-01  2.90275710815857124203e-05 8
4.24999999999999988898e-01  2.50000000000000000000e-01  6.87539579224691665971e-01  2.97853103288225895540e-05 8
4.31250000000000022204e-01  2.50000000000000000000e-01  6.90647246746935561390e-01  3.05315667078476238316e-05 8
4.37500000000000000000e-01  2.50000000000000000000e-01  6.93488656608422182615e-01  3.12660526514685344068e-05 8
4.43749999999999977796e-01  2.50000000000000000000e-01  6.96062713391567666754e-01  3.19884849951934668866e-05 8
4.50000000000000011102e-01  2.50000000000000000000e-01  6.98368424748666338786e-01  3.26985850439553971114e-05 8
4.56249999999999988898e-01  2.50000000000000000000e-01  7.00404901783865718734e-01  3.33960792735510381135e-05 8
4.62500000000000022204e-01  2.50000000000000000000e-01  7.02171359396697170041e-01  3.40806985922315064386e-05 8
4.68750000000000000000e-01  2.50000000000000000000e-01  7.03667116583951868236e-01  3.47521792392058159749e-05 8
4.74999999999999977796e-01  2.50000000000000000000e-01  7.04891596702976630517e-01  3.54102621306084941466e-05 8
4.81250000000000011102e-01  2.50000000000000000000e-01  7.05844327693136652790e-01  3.60546938025230190306e-05 8
4.87499999999999988898e-01  2.50000000000000000000e-01  7.06524942258554333741e-01  3.66852257591698815986e-05 8
4.93750000000000022204e-01  2.50000000000000000000e-01  7.06933178009617524395e-01  3.73016146597571207622e-05 8
5.00000000000000000000e-01  2.50000000000000000000e-01  7.07068877563433395572e-01  3.79036231140661428185e-05 8
5.06249999999999977796e-01  2.50000000000000000000e-01  7.06931988604981409452e-01  3.84910192958720642764e-05 8
5.12499999999999955591e-01  2.50000000000000000000e-01  7.06522563908233869334e-01  3.90635760796342879075e-05 8
5.18750000000000044409e-01  2.50000000000000000000e-01  7.05840761313612841121e-01  3.96210733263346881472e-05 8
5.25000000000000022204e-01  2.50000000000000000000e-01  7.04886843669328966300e-01  4.01632957782727118001e-05 8
5.31250000000000000000e-01  2.50000000000000000000e-01  7.03661178728474889787e-01  4.06900347162952868985e-05 8
5.37499999999999977796e-01  2.50000000000000000000e-01  7.02164239008655655105e-01  4.12010866337464420894e-05 8
5.43749999999999955591e-01  2.50000000000000000000e-01  7.00396601608347824097e-01  4.16962547914456749254e-05 8
5.50000000000000044409e-01  2.50000000000000000000e-01  6.98358947985377565004e-01  4.21753483326181566326e-05 8
5.56250000000000022204e-01  2.50000000000000000000e-01  6.96052063694048595011e-01  4.26381825142652104432e-05 8
5.62500000000000000000e-01  2.50000000000000000000e-01  6.93476838082366819904e-01  4.30845787068312446877e-05 8
5.68749999999999977796e-01  2.50000000000000000000e-01  6.90634263948558757562e-01  4.35143650846514518093e-05 8
5.74999999999999955591e-01  2.50000000000000000000e-01  6.87525437159083874228e-01  4.39273759366143323746e-05 8
5.81250000000000044409e-01  2.50000000000000000000e-01  6.84151556226141654982e-01  4.43234517464308197532e-05 8
5.87500000000000022204e-01  2.50000000000000000000e-01  6.80513921844734026578e-01  4.47024401419859884754e-05 8
5.93750000000000000000e-01  2.50000000000000000000e-01  6.76613936392325587832e-01  4.50641948507302103621e-05 8
5.99999999999999977796e-01  2.50000000000000000000e-01  6.72453103387458117624e-01  4.54085764991507545574e-05 8
6.06249999999999955591e-01  2.50000000000000000000e-01  6.68033026910623162209e-01  4.57354521585795481542e-05 8
6.12500000000000044409e-01  2.50000000000000000000e-01  6.63355410985208671093e-01  4.60446960458549270356e-05 8
6.18750000000000022204e-01  2.50000000000000000000e-01  6.58422058921231623252e-01  4.63361889068147903004e-05 8
6.25000000000000000000e-01  2.50000000000000000000e-01  6.53234872620096163054e-01  4.66098180920138105421e-05 8
6.31249999999999977796e-01  2.50000000000000000000e-01  6.47795851840558101209e-01  4.68654784184785455636e-05 8
6.37499999999999955591e-01  2.50000000000000000000e-01  6.42107093428818886949e-01  4.71030711697295600970e-05 8
6.43750000000000044409e-01  2.50000000000000000000e-01  6.36170790509454464612e-01  4.73225048311931573153e-05 8
6.50000000000000022204e-01  2.50000000000000000000e-01  6.29989231640392666201e-01  4.75236946577695107408e-05 8
6.56250000000000000000e-01  2.50000000000000000000e-01  6.23564799929961166569e-01  4.77065633743833927838e-05 8
6.62499999999999977796e-01  2.50000000000000000000e-01  6.16899972119275163962e-01  4.78710400856341422582e-05 8
6.68749999999999955591e-01  2.50000000000000000000e-01  6.09997317625854740264e-01  4.80170618541997384909e-05 8
6.75000000000000044409e-01  2.50000000000000000000e-01  6.02859497554874002034e-01  4.81445719170414676569e-05 8
6.81250000000000022204e-01  2.50000000000000000000e-01  5.95489263671528989974e-01  4.82535214325618966313e-05 8
6.87500000000000000000e-01  2.50000000000000000000e-01  5.87889457341307375415e-01  4.83438683720471829020e-05 8
6.93749999999999977796e-01  2.50000000000000000000e-01  5.80063008434472338060e-01  4.84155776507844137768e-05 8
6.99999999999999955591e-01  2.50000000000000000000e-01  5.72012934195839317653e-01  4.84686218449326133850e-05 8
7.06250000000000044409e-01  2.50000000000000000000e-01  5.63742338082247607112e-01  4.85029805249448386917e-05 8
7.12500000000000022204e-01  2.50000000000000000000e-01  5.55254408565966861566e-01  4.85186404149962058341e-05 8
7.18750000000000000000e-01  2.50000000000000000000e-01  5.46552417905556753297e-01  4.85155953220406388482e-05 8
7.24999999999999977796e-01  2.50000000000000000000e-01  5.37639720883794747230e-01  4.84938466916995380984e-05 8
7.31249999999999955591e-01  2.50000000000000000000e-01  5.28519753515369283825e-01  4.84534025833038839437e-05 8
7.37500000000000044409e-01  2.50000000000000000000e-01  5.19196031720920991859e-01  4.83942789746283352770e-05 8
7.43750000000000022204e-01  2.50000000000000000000e-01  5.09672149973134258616e-01  4.83164982123529540559e-05 8
7.50000000000000000000e-01  2.50000000000000000000e-01  4.99951779909299787175e-01  4.82200907002128253964e-05 8
7.56249999999999977796e-01  2.50000000000000000000e-01  4.90038668917301745154e-01  4.81050934164617416400e-05 8
7.62499999999999955591e-01  2.50000000000000000000e-01  4.79936638690228067894e-01  4.79715505992128754542e-05 8
7.68750000000000044409e-01  2.50000000000000000000e-01  4.69649583752795474201e-01  4.78195139677617397922e-05 8
7.75000000000000022204e-01  2.50000000000000000000e-01  4.59181469960796395657e-01  4.76490418451769315311e-05 8
7.81250000000000000000e-01  2.50000000000000000000e-01  4.48536332971024020999e-01  4.74602002940582856638e-05 8
7.87499999999999977796e-01  2.50000000000000000000e-01  4.37718276686769269812e-01  4.72530617751654169467e-05 8
7.93749999999999955591e-01  2.50000000000000000000e-01  4.26731471674376472425e-01  4.70277064281710011073e-05 8
8.00000000000000044409e-01  2.50000000000000000000e-01  4.15580153556644127377e-01  4.67842208093371958455e-05 8
8.06250000000000022204e-01  2.50000000000000000000e-01  4.04268621378568726588e-01  4.65226991998024530517e-05 8
8.12500000000000000000e-01  2.50000000000000000000e-01  3.92801235951441618521e-01  4.62432421093894596709e-05 8
8.18749999999999977796e-01  2.50000000000000000000e-01  3.81182418170586567729e-01  4.59459573243781171925e-05 8
8.24999999999999955591e-01  2.50000000000000000000e-01  3.69416647311256618469e-01  4.56309596289505847722e-05 8
8.31250000000000044409e-01  2.50000000000000000000e-01  3.57508459302347592068e-01  4.52983702032838664309e-05 8
8.37500000000000022204e-01  2.50000000000000000000e-01  3.45462444976792237838e-01  4.49483174941867069663e-05 8
8.43750000000000000000e-01  2.50000000000000000000e-01  3.33283248302636170290e-01  4.45809362372151518628e-05 8
8.49999999999999977796e-01  2.50000000000000000000e-01  3.20975564591812978499e-01  4.41963682901169718775e-05 8
8.56249999999999955591e-01  2.50000000000000000000e-01  3.08544138690860614282e-01  4.37947617318856785573e-05 8
8.62500000000000044409e-01  2.50000000000000000000e-01  2.95993763151019440016e-01  4.33762714760477230413e-05 8
8.68750000000000022204e-01  2.50000000000000000000e-01  2.83329276381014794062e-01  4.29410588123069203448e-05 8
8.75000000000000000000e-01  2.50000000000000000000e-01  2.70555560781451209795e-01  4.24892916473518234000e-05 8
8.81249999999999977796e-01  2.50000000000000000000e-01  2.57677540863010590133e-01  4.20211439868256597663e-05 8
8.87499999999999955591e-01  2.50000000000000000000e-01  2.44700181347476480864e-01  4.15367963503276982351e-05 8
8.93750000000000044409e-01  2.50000000000000000000e-01  2.31628485253885740835e-01  4.10364355537817804276e-05 8
9.00000000000000022204e-01  2.50000000000000000000e-01  2.18467491970031180148e-01  4.05202543793947711492e-05 8
9.06250000000000000000e-01  2.50000000000000000000e-01  2.05222275309290436152e-01  3.99884518882398509732e-05 8
9.12499999999999977796e-01  2.50000000000000000000e-01  1.91897941554853873614e-01  3.94412330674276390141e-05 8
9.18749999999999955591e-01  2.50000000000000000000e-01  1.78499627490941725760e-01  3.88788089620284438297e-05 8
9.25000000000000044409e-01  2.50000000000000000000e-01  1.65032498422775480984e-01  3.83013962962641674181e-05 8
9.31250000000000022204e-01  2.50000000000000000000e-01  1.51501746184948465901e-01  3.77092176946647317237e-05 8
9.37500000000000000000e-01  2.50000000000000000000e-01  1.37912587139951470228e-01  3.71025015202530727976e-05 8
9.43749999999999977796e-01  2.50000000000000000000e-01  1.24270260167370888427e-01  3.64814815799335834257e-05 8
9.49999999999999955591e-01  2.50000000000000000000e-01  1.10580024643867305678e-01  3.58463973699069127221e-05 8
9.56250000000000044409e-01  2.50000000000000000000e-01  9.68471584159262266489e-02  3.51974936416282746521e-05 8
9.62500000000000022204e-01  2.50000000000000000000e-01  8.30769557648085160695e-02  3.45350206468753029299e-05 8
9.68750000000000000000e-01  2.50000000000000000000e-01  6.92747253657899630941e-02  3.38592337559145972747e-05 8
9.74999999999999977796e-01  2.50000000000000000000e-01  5.54457882414703881468e-02  3.31703934533383870686e-05 8
9.81249999999999955591e-01  2.50000000000000000000e-01  4.15954757103004987839e-02  3.24687653573477175151e-05 8
9.87500000000000044409e-01  2.50000000000000000000e-01  2.77291273314551646456e-02  3.17546199166580944695e-05 8
9.93750000000000022204e-01  2.50000000000000000000e-01  1.38670461381050491578e-02  1.60709405365774132823e-05 8
1.00000000000000000000e+00  2.50000000000000000000e-01  0.00000000000000000000e+00  8.65956056235493162558e-17 8
0.00000000000000000000e+00  2.56249999999999977796e-01  0.00000000000000000000e+00  0.00000000000000000000e+00 8
6.25000000000000034694e-03  2.56249999999999977796e-01  1.41672820483412422593e-02  1.42642215383535775342e-05 8
1.25000000000000006939e-02  2.56249999999999977796e-01  2.83287288294475289585e-02  2.81494336289919711014e-05 8
1.87499999999999993061e-02  2.56249999999999977796e-01  4.24645936044182117919e-02  2.73630516672770940367e-05 8
2.50000000000000013878e-02  2.56249999999999977796e-01  5.65840874702039087207e-02  2.65661207282802402929e-05 8
3.12500000000000000000e-02  2.56249999999999977796e-01  7.06817670931420005687e-02  2.57589480435332918162e-05 8
3.74999999999999986122e-02  2.56249999999999977796e-01  8.47521975493781137834e-02  2.49418447953592137267e-05 8
4.37499999999999972244e-02  2.56249999999999977796e-01  9.87899544201249202313e-02  2.41151259890437508204e-05 8
5.00000000000000027756e-02  2.56249999999999977796e-01  1.12789625882893054798e-01  2.32791103456364556479e-05 8
5.62500000000000013878e-02  2.56249999999999977796e-01  1.26745814797832645482e-01  2.24341201600641859670e-05 8
6.25000000000000000000e-02  2.56249999999999977796e-01  1.40653140788448399734e-01  2.15804811917463812421e-05 8
6.87500000000000055511e-02  2.56249999999999977796e-01  1.54506242315840647272e-01  2.07185225424566521468e-05 8
7.49999999999999972244e-02  2.56249999999999977796e-01  1.68299778745653300094e-01  1.98485765023626026249e-05 8
8.12500000000000027756e-02  2.56249999999999977796e-01  1.82028432407034590490e-01  1.89709784659819469255e-05 8
8.74999999999999944489e-02  2.56249999999999977796e-01  1.95686910642641320734e-01  1.80860667442495071100e-05 8
9.37500000000000000000e-02  2.56249999999999977796e-01  2.09269947849136217499e-01  1.71941825111154855676e-05 8
1.00000000000000005551e-01  2.56249999999999977796e-01  2.22772307507098477064e-01  1.62956695920479788242e-05 8
1.06249999999999997224e-01  2.56249999999999977796e-01  2.36188784199846374401e-01  1.53908743765474032017e-05 8
1.12500000000000002776e-01  2.56249999999999977796e-01  2.49514205620236795280e-01  1.44801456965770736218e-05 8
1.18749999999999994449e-01  2.56249999999999977796e-01  2.62743434564623068450e-01  1.35638346273614374127e-05 8
1.25000000000000000000e-01  2.56249999999999977796e-01  2.75871370913452651497e-01  1.26422944595749875418e-05 8
1.31250000000000005551e-01  2.56249999999999977796e-01  2.88892953597322921233e-01  1.17158804260886206805e-05 8
1.37500000000000011102e-01  2.56249999999999977796e-01  3.01803162548270831333e-01  1.07849497157919138601e-05 8
1.43749999999999988898e-01  2.56249999999999977796e-01  3.14597020634956259233e-01  9.84986118796049581192e-06 8
1.49999999999999994449e-01  2.56249999999999977796e-01  3.27269595581594019418e-01  8.91097538624485707714e-06 8
1.56250000000000000000e-01  2.56249999999999977796e-01  3.39816001869213624165e-01  7.96865417401759756899e-06 8
1.62500000000000005551e-01  2.56249999999999977796e-01  3.52231402619468281223e-01  7.02326094292882174841e-06 8
1.68750000000000011102e-01  2.56249999999999977796e-01  3.64511011458962586040e-01  6.07516009171193971383e-06 8
1.74999999999999988898e-01  2.56249999999999977796e-01  3.76650094364766319099e-01  5.12471716190843196159e-06 8
1.81249999999999994449e-01  2.56249999999999977796e-01  3.88643971489299300259e-01  4.17229852522904565149e-06 8
1.87500000000000000000e-01  2.56249999999999977796e-01  4.00488018964690162260e-01  3.21827143129338466565e-06 8
1.93750000000000005551e-01  2.56249999999999977796e-01  4.12177670685101693593e-01  2.26300360195441641054e-06 8
2.00000000000000011102e-01  2.56249999999999977796e-01  4.23708420067321456237e-01  1.30686335969576461480e-06 8
2.06249999999999988898e-01  2.56249999999999977796e-01  4.35075821787948346930e-01  3.50219298339560225486e-07 8
2.12499999999999994449e-01  2.56249999999999977796e-01  4.46275493497187147884e-01  6.06559821092478301807e-07 8
2.18750000000000000000e-01  2.56249999999999977796e-01  4.57303117508509771039e-01  1.56310503085510532628e-06 8
2.25000000000000005551e-01  2.56249999999999977796e-01  4.68154442462815678638e-01  2.51904768816535451492e-06 8
2.31250000000000011102e-01  2.56249999999999977796e-01  4.78825284967864195362e-01  3.47401916545031497208e-06 8
2.37499999999999988898e-01  2.56249999999999977796e-01  4.89311531210683603454e-01  4.42765136010603299610e-06 8
2.43749999999999994449e-01  2.56249999999999977796e-01  4.99609138543711028824e-01  5.37957665036614685050e-06 8
2.50000000000000000000e-01  2.56249999999999977796e-01  5.09714137043412063299e-01  6.32942793443724838198e-06 8
2.56249999999999977796e-01  2.56249999999999977796e-01  5.19622631040330462682e-01  7.27683920376254178564e-06 8
2.62500000000000011102e-01  2.56249999999999977796e-01  5.29330800621667374450e-01  8.22144495948862186196e-06 8
2.68749999999999988898e-01  2.56249999999999977796e-01  5.38834903102883289172e-01  9.16288140051513266826e-06 8
2.75000000000000022204e-01  2.56249999999999977796e-01  5.48131274471947094185e-01  1.01007851911472101847e-05 8
2.81250000000000000000e-01  2.56249999999999977796e-01  5.57216330800407444457e-01  1.10347950753597601192e-05 8
2.87499999999999977796e-01  2.56249999999999977796e-01  5.66086569626387814402e-01  1.19645506945209589844e-05 8
2.93750000000000011102e-01  2.56249999999999977796e-01  5.74738571303665457535e-01  1.28896939129985454997e-05 8
2.99999999999999988898e-01  2.56249999999999977796e-01  5.83169000321221209227e-01  1.38098677445741557790e-05 8
3.06250000000000022204e-01  2.56249999999999977796e-01  5.91374606587943496550e-01  1.47247176894849118867e-05 8
3.12500000000000000000e-01  2.56249999999999977796e-01  5.99352226686492906005e-01  1.56338909782505197654e-05 8
3.18749999999999977796e-01  2.56249999999999977796e-01  6.07098785092460291324e-01  1.65370371074669009204e-05 8
3.25000000000000011102e-01  2.56249999999999977796e-01  6.14611295360109277652e-01  1.74338079058644623842e-05 8
3.31249999999999988898e-01  2.56249999999999977796e-01  6.21886861273782454163e-01  1.83238575928168501150e-05 8
3.37500000000000022204e-01  2.56249999999999977796e-01  6.28922677964191989552e-01  1.92068431690284313618e-05 8
3.43750000000000000000e-01  2.56249999999999977796e-01  6.35716032990299995120e-01  2.00824239972030582635e-05 8
3.49999999999999977796e-01  2.56249999999999977796e-01  6.42264307384098676046e-01  2.09502628524260714471e-05 8
3.56250000000000011102e-01  2.56249999999999977796e-01  6.48564976661525904866e-01  2.18100247972863314772e-05 8
3.62499999999999988898e-01  2.56249999999999977796e-01  6.54615611794360341413e-01  2.26613786533658156941e-05 8
3.68750000000000022204e-01  2.56249999999999977796e-01  6.60413880147624587913e-01  2.35039961623551008074e-05 8
3.75000000000000000000e-01  2.56249999999999977796e-01  6.65957546378625142580e-01  2.43375523469868682014e-05 8
3.81249999999999977796e-01  2.56249999999999977796e-01  6.71244473298352684054e-01  2.51617260045300383808e-05 8
3.87500000000000011102e-01  2.56249999999999977796e-01  6.76272622695998970599e-01  2.59761992399409891163e-05 8
3.93749999999999988898e-01  2.56249999999999977796e-01  6.81040056123980774849e-01  2.67806583331697822814e-05 8
4.00000000000000022204e-01  2.56249999999999977796e-01  6.85544935646333342127e-01  2.75747927760416899901e-05 8
4.06250000000000000000e-01  2.56249999999999977796e-01  6.89785524545914352501e-01  2.83582967469664382065e-05 8
4.12499999999999977796e-01  2.56249999999999977796e-01  6.93760187995191124344e-01  2.91308679786217439300e-05 8
4.18750000000000011102e-01  2.56249999999999977796e-01  6.97467393685631042999e-01  2.98922087418329596176e-05 8
4.24999999999999988898e-01  2.56249999999999977796e-01  7.00905712418900650462e-01  3.06420254952977089147e-05 8
4.31250000000000022204e-01  2.56249999999999977796e-01  7.04073818657644179275e-01  3.13800292029986493958e-05 8
4.37500000000000000000e-01  2.56249999999999977796e-01  7.06970491036740034119e-01  3.21059352093033822939e-05 8
4.43749999999999977796e-01  2.56249999999999977796e-01  7.09594612833683968667e-01  3.28194638250511872002e-05 8
4.50000000000000011102e-01  2.56249999999999977796e-01  7.11945172399604198077e-01  3.35203399383088296304e-05 8
4.56249999999999988898e-01  2.56249999999999977796e-01  7.14021263549152629402e-01  3.42082932379694781844e-05 8
4.62500000000000022204e-01  2.56249999999999977796e-01  7.15822085909483707411e-01  3.48830586924808727645e-05 8
4.68750000000000000000e-01  2.56249999999999977796e-01  7.17346945229567989344e-01  3.55443758961460076762e-05 8
4.74999999999999977796e-01  2.56249999999999977796e-01  7.18595253646604703590e-01  3.61919904044993856473e-05 8
4.81250000000000011102e-01  2.56249999999999977796e-01  7.19566529914697938786e-01  3.68256517883081002651e-05 8
4.87499999999999988898e-01  2.56249999999999977796e-01  7.20260399587659749798e-01  3.74451164564248983879e-05 8
4.93750000000000022204e-01  2.56249999999999977796e-01  7.20676595165837263757e-01  3.80501452791337513304e-05 8
5.00000000000000000000e-01  2.56249999999999977796e-01  7.20814956197850187358e-01  3.86405050685212358985e-05 8
5.06249999999999977796e-01  2.56249999999999977796e-01  7.20675429343187179398e-01  3.92159679292181095889e-05 8
5.12499999999999955591e-01  2.56249999999999977796e-01  7.20258068391321004675e-01  3.97763127951700212748e-05 8
5.18750000000000044409e-01  2.56249999999999977796e-01  7.19563034243812182922e-01  4.03213226740639640866e-05 8
5.25000000000000022204e-01  2.56249999999999977796e-01  7.18590594848711905485e-01  4.08507882972974911695e-05 8
5.31250000000000000000e-01  2.56249999999999977796e-01  7.17341125100770971024e-01  4.13645046932753501778e-05 8
5.37499999999999977796e-01  2.56249999999999977796e-01  7.15815106693427183338e-01  4.18622747490049462726e-05 8
5.43749999999999955591e-01  2.56249999999999977796e-01  7.14013127936494629289e-01  4.23439058959695913131e-05 8
5.50000000000000044409e-01  2.56249999999999977796e-01  7.11935883527009205629e-01  4.28092125331902551011e-05 8
5.56250000000000022204e-01  2.56249999999999977796e-01  7.09584174281768453874e-01  4.32580157405659804226e-05 8
5.62500000000000000000e-01  2.56249999999999977796e-01  7.06958906830088995576e-01  4.36901418603419244846e-05 8
5.68749999999999977796e-01  2.56249999999999977796e-01  7.04061093262073667276e-01  4.41054247735106486061e-05 8
5.74999999999999955591e-01  2.56249999999999977796e-01  7.00891850740484545490e-01  4.45037039114026811149e-05 8
5.81250000000000044409e-01  2.56249999999999977796e-01  6.97452401067856886385e-01  4.48848265159895731813e-05 8
5.87500000000000022204e-01  2.56249999999999977796e-01  6.93744070218530461958e-01  4.52486446392841301645e-05 8
5.93750000000000000000e-01  2.56249999999999977796e-01  6.89768287823663284186e-01  4.55950189980347531105e-05 8
5.99999999999999977796e-01  2.56249999999999977796e-01  6.85526586623709799362e-01  4.59238153996954778790e-05 8
6.06249999999999955591e-01  2.56249999999999977796e-01  6.81020601875056530439e-01  4.62349072574141928271e-05 8
6.12500000000000044409e-01  2.56249999999999977796e-01  6.76252070720437692408e-01  4.65281748011081575100e-05 8
6.18750000000000022204e-01  2.56249999999999977796e-01  6.71222831519787788146e-01  4.68035045695369689156e-05 8
6.25000000000000000000e-01  2.56249999999999977796e-01  6.65934823139807008374e-01  4.70607911651210741866e-05 8
6.31249999999999977796e-01  2.56249999999999977796e-01  6.60390084209280248118e-01  4.72999345066948961858e-05 8
6.37499999999999955591e-01  2.56249999999999977796e-01  6.54590752329924807640e-01  4.75208430891216337955e-05 8