Titile = 'Poisson'  
VARIABLES = X, Y, U, Error, Rank 
zone N= 451, E = 800
DATAPACKING=POINT, ZONETYPE=FETRIANGLE
0.00000000000000000000e+00  0.00000000000000000000e+00  0.00000000000000000000e+00  0.00000000000000000000e+00 0
2.50000000000000013878e-02  0.00000000000000000000e+00  0.00000000000000000000e+00  0.00000000000000000000e+00 0
5.00000000000000027756e-02  0.00000000000000000000e+00  0.00000000000000000000e+00  0.00000000000000000000e+00 0
7.49999999999999972244e-02  0.00000000000000000000e+00  0.00000000000000000000e+00  0.00000000000000000000e+00 0
1.00000000000000005551e-01  0.00000000000000000000e+00  0.00000000000000000000e+00  0.00000000000000000000e+00 0
1.25000000000000000000e-01  0.00000000000000000000e+00  0.00000000000000000000e+00  0.00000000000000000000e+00 0
1.49999999999999994449e-01  0.00000000000000000000e+00  0.00000000000000000000e+00  0.00000000000000000000e+00 0
1.74999999999999988898e-01  0.00000000000000000000e+00  0.00000000000000000000e+00  0.00000000000000000000e+00 0
2.00000000000000011102e-01  0.00000000000000000000e+00  0.00000000000000000000e+00  0.00000000000000000000e+00 0
2.25000000000000005551e-01  0.00000000000000000000e+00  0.00000000000000000000e+00  0.00000000000000000000e+00 0
2.50000000000000000000e-01  0.00000000000000000000e+00  0.00000000000000000000e+00  0.00000000000000000000e+00 0
2.75000000000000022204e-01  0.00000000000000000000e+00  0.00000000000000000000e+00  0.00000000000000000000e+00 0
2.99999999999999988898e-01  0.00000000000000000000e+00  0.00000000000000000000e+00  0.00000000000000000000e+00 0
3.25000000000000011102e-01  0.00000000000000000000e+00  0.00000000000000000000e+00  0.00000000000000000000e+00 0
3.49999999999999977796e-01  0.00000000000000000000e+00  0.00000000000000000000e+00  0.00000000000000000000e+00 0
3.75000000000000000000e-01  0.00000000000000000000e+00  0.00000000000000000000e+00  0.00000000000000000000e+00 0
4.00000000000000022204e-01  0.00000000000000000000e+00  0.00000000000000000000e+00  0.00000000000000000000e+00 0
4.24999999999999988898e-01  0.00000000000000000000e+00  0.00000000000000000000e+00  0.00000000000000000000e+00 0
4.50000000000000011102e-01  0.00000000000000000000e+00  0.00000000000000000000e+00  0.00000000000000000000e+00 0
4.74999999999999977796e-01  0.00000000000000000000e+00  0.00000000000000000000e+00  0.00000000000000000000e+00 0
5.00000000000000000000e-01  0.00000000000000000000e+00  0.00000000000000000000e+00  0.00000000000000000000e+00 0
5.25000000000000022204e-01  0.00000000000000000000e+00  0.00000000000000000000e+00  0.00000000000000000000e+00 0
5.50000000000000044409e-01  0.00000000000000000000e+00  0.00000000000000000000e+00  0.00000000000000000000e+00 0
5.74999999999999955591e-01  0.00000000000000000000e+00  0.00000000000000000000e+00  0.00000000000000000000e+00 0
5.99999999999999977796e-01  0.00000000000000000000e+00  0.00000000000000000000e+00  0.00000000000000000000e+00 0
6.25000000000000000000e-01  0.00000000000000000000e+00  0.00000000000000000000e+00  0.00000000000000000000e+00 0
6.50000000000000022204e-01  0.00000000000000000000e+00  0.00000000000000000000e+00  0.00000000000000000000e+00 0
6.75000000000000044409e-01  0.00000000000000000000e+00  0.00000000000000000000e+00  0.00000000000000000000e+00 0
6.99999999999999955591e-01  0.00000000000000000000e+00  0.00000000000000000000e+00  0.00000000000000000000e+00 0
7.24999999999999977796e-01  0.00000000000000000000e+00  0.00000000000000000000e+00  0.00000000000000000000e+00 0
7.50000000000000000000e-01  0.00000000000000000000e+00  0.00000000000000000000e+00  0.00000000000000000000e+00 0
7.75000000000000022204e-01  0.00000000000000000000e+00  0.00000000000000000000e+00  0.00000000000000000000e+00 0
8.00000000000000044409e-01  0.00000000000000000000e+00  0.00000000000000000000e+00  0.00000000000000000000e+00 0
8.24999999999999955591e-01  0.00000000000000000000e+00  0.00000000000000000000e+00  0.00000000000000000000e+00 0
8.49999999999999977796e-01  0.00000000000000000000e+00  0.00000000000000000000e+00  0.00000000000000000000e+00 0
8.75000000000000000000e-01  0.00000000000000000000e+00  0.00000000000000000000e+00  0.00000000000000000000e+00 0
9.00000000000000022204e-01  0.00000000000000000000e+00  0.00000000000000000000e+00  0.00000000000000000000e+00 0
9.25000000000000044409e-01  0.00000000000000000000e+00  0.00000000000000000000e+00  0.00000000000000000000e+00 0
9.49999999999999955591e-01  0.00000000000000000000e+00  0.00000000000000000000e+00  0.00000000000000000000e+00 0
9.74999999999999977796e-01  0.00000000000000000000e+00  0.00000000000000000000e+00  0.00000000000000000000e+00 0
1.00000000000000000000e+00  0.00000000000000000000e+00  0.00000000000000000000e+00  0.00000000000000000000e+00 0
0.00000000000000000000e+00  2.50000000000000013878e-02  0.00000000000000000000e+00  0.00000000000000000000e+00 0
2.50000000000000013878e-02  2.50000000000000013878e-02  6.16270397362960430099e-03  6.87427119846779205448e-06 0
5.00000000000000027756e-02  2.50000000000000013878e-02  1.22832888039293031818e-02  9.58213620361539342163e-06 0
7.49999999999999972244e-02  2.50000000000000013878e-02  1.83257386571023771216e-02  9.82650711030264023549e-06 0
1.00000000000000005551e-01  2.50000000000000013878e-02  2.42536200293895082281e-02  8.42608619458853902451e-06 0
1.25000000000000000000e-01  2.50000000000000013878e-02  3.00308406844894439092e-02  5.84463109658955870529e-06 0
1.49999999999999994449e-01  2.50000000000000013878e-02  3.56220654796688684929e-02  2.38140107160222935789e-06 0
1.74999999999999988898e-01  2.50000000000000013878e-02  4.09930141764197619736e-02  1.75073029044792161102e-06 0
2.00000000000000011102e-01  2.50000000000000013878e-02  4.61107102899813228736e-02  6.38908704932161786161e-06 0
2.25000000000000005551e-01  2.50000000000000013878e-02  5.09437040078307354363e-02  1.14025863692107654046e-05 0
2.50000000000000000000e-01  2.50000000000000013878e-02  5.54622772994974519434e-02  1.66813354261843849180e-05 0
2.75000000000000022204e-01  2.50000000000000013878e-02  5.96386340281205157288e-02  2.21304189166882103734e-05 0
2.99999999999999988898e-01  2.50000000000000013878e-02  6.34470758116987693098e-02  2.76659954186325718339e-05 0
3.25000000000000011102e-01  2.50000000000000013878e-02  6.68641635305861348204e-02  3.32127458770314909486e-05 0
3.49999999999999977796e-01  2.50000000000000013878e-02  6.98688640220534590286e-02  3.87021533760772973309e-05 0
3.75000000000000000000e-01  2.50000000000000013878e-02  7.24426813687082116200e-02  4.40713135914649889457e-05 0
4.00000000000000022204e-01  2.50000000000000013878e-02  7.45697721611902480943e-02  4.92620934019333267528e-05 0
4.24999999999999988898e-01  2.50000000000000013878e-02  7.62370441457572434185e-02  5.42205216010338553190e-05 0
4.50000000000000011102e-01  2.50000000000000013878e-02  7.74342377294022637946e-02  5.88963346279669508476e-05 0
4.74999999999999977796e-01  2.50000000000000013878e-02  7.81539898963387047459e-02  6.32426237767297338976e-05 0
5.00000000000000000000e-01  2.50000000000000013878e-02  7.83918801830512240736e-02  6.72155447937194949759e-05 0
5.25000000000000022204e-01  2.50000000000000013878e-02  7.81464584604898288012e-02  7.07740596256056786473e-05 0
5.50000000000000044409e-01  2.50000000000000013878e-02  7.74192543788591175380e-02  7.38796851711132074314e-05 0
5.74999999999999955591e-01  2.50000000000000013878e-02  7.62147684410781761644e-02  7.64962262801011094737e-05 0
5.99999999999999977796e-01  2.50000000000000013878e-02  7.45404447842493433907e-02  7.85894703428380303478e-05 0
6.25000000000000000000e-01  2.50000000000000013878e-02  7.24066258636882897903e-02  8.01268186113868186027e-05 0
6.50000000000000022204e-01  2.50000000000000013878e-02  6.98264893509295131446e-02  8.10768245000370590958e-05 0
6.75000000000000044409e-01  2.50000000000000013878e-02  6.68159676760202853041e-02  8.14086004428810072753e-05 0
6.99999999999999955591e-01  2.50000000000000013878e-02  6.33936507664875914525e-02  8.10910406298104291523e-05 0
7.24999999999999977796e-01  2.50000000000000013878e-02  5.95806726634696484646e-02  8.00917835675554745656e-05 0
7.50000000000000000000e-01  2.50000000000000013878e-02  5.54005828353004922682e-02  7.83757996231509990182e-05 0
7.75000000000000022204e-01  2.50000000000000013878e-02  5.08792031718018691877e-02  7.59034223980908917540e-05 0
8.00000000000000044409e-01  2.50000000000000013878e-02  4.60444718521709414616e-02  7.26275248597099687409e-05 0
8.24999999999999955591e-01  2.50000000000000013878e-02  4.09262755856380847086e-02  6.84893210721390643947e-05 0
8.49999999999999977796e-01  2.50000000000000013878e-02  3.55562722399833663900e-02  6.34118386139068124230e-05 0
8.75000000000000000000e-01  2.50000000000000013878e-02  2.99677068715163627544e-02  5.72891818765020044424e-05 0
9.00000000000000022204e-01  2.50000000000000013878e-02  2.41952263657454896828e-02  4.99675774494404145720e-05 0
9.25000000000000044409e-01  2.50000000000000013878e-02  1.82747033282594818770e-02  4.12088217326030126220e-05 0
9.49999999999999955591e-01  2.50000000000000013878e-02  1.22430948759376864721e-02  3.06117917880099899008e-05 0
9.74999999999999977796e-01  2.50000000000000013878e-02  6.13840808950594143262e-03  1.74216129252046172948e-05 0
1.00000000000000000000e+00  2.50000000000000013878e-02  0.00000000000000000000e+00  9.60846804471010887295e-18 0
0.00000000000000000000e+00  5.00000000000000027756e-02  0.00000000000000000000e+00  0.00000000000000000000e+00 0
2.50000000000000013878e-02  5.00000000000000027756e-02  1.22832888039293066512e-02  9.58213620361886286858e-06 0
5.00000000000000027756e-02  5.00000000000000027756e-02  2.44851791767593321425e-02  1.34373243361185501499e-05 0
7.49999999999999972244e-02  5.00000000000000027756e-02  3.65322008418097893268e-02  1.33002308891835840932e-05 0
1.00000000000000005551e-01  5.00000000000000027756e-02  4.83511860095311024610e-02  1.02778061461736291982e-05 0
1.25000000000000000000e-01  5.00000000000000027756e-02  5.98699836478351829494e-02  5.10562604299352740256e-06 0
1.49999999999999994449e-01  5.00000000000000027756e-02  7.10180632685995655295e-02  1.69769150350218556156e-06 0
1.74999999999999988898e-01  5.00000000000000027756e-02  8.17270387966416711478e-02  9.74465898623266824075e-06 0
2.00000000000000011102e-01  5.00000000000000027756e-02  9.19311406291941912716e-02  1.87308717159856419343e-05 0
2.25000000000000005551e-01  5.00000000000000027756e-02  1.01567650845638166035e-01  2.84071663161217236038e-05 0
2.50000000000000000000e-01  5.00000000000000027756e-02  1.10577308231872950550e-01  3.85628093641926517066e-05 0
2.75000000000000022204e-01  5.00000000000000027756e-02  1.18904685505394194789e-01  4.90149366468572988964e-05 0
2.99999999999999988898e-01  5.00000000000000027756e-02  1.26498539039775675930e-01  5.96016837247081987528e-05 0
3.25000000000000011102e-01  5.00000000000000027756e-02  1.33312130398935357878e-01  7.01775836115803297588e-05 0
3.49999999999999977796e-01  5.00000000000000027756e-02  1.39303518553132416047e-01  8.06104056304268734578e-05 0
3.75000000000000000000e-01  5.00000000000000027756e-02  1.44435821493442473340e-01  9.07789365792444069569e-05 0
4.00000000000000022204e-01  5.00000000000000027756e-02  1.48677445958804138604e-01  1.00571390853815278987e-04 0
4.24999999999999988898e-01  5.00000000000000027756e-02  1.52002284073532251130e-01  1.09884245090147159019e-04 0
4.50000000000000011102e-01  5.00000000000000027756e-02  1.54389875828747913378e-01  1.18621358725812253709e-04 0
4.74999999999999977796e-01  5.00000000000000027756e-02  1.55825536509245909933e-01  1.26693282629264381001e-04 0
5.00000000000000000000e-01  5.00000000000000027756e-02  1.56300448356828575180e-01  1.34016683402293779181e-04 0
5.25000000000000022204e-01  5.00000000000000027756e-02  1.55811715965117919547e-01  1.40513826757254767230e-04 0
5.50000000000000044409e-01  5.00000000000000027756e-02  1.54362385114916039752e-01  1.46112072557658123628e-04 0
5.74999999999999955591e-01  5.00000000000000027756e-02  1.51961424980168902099e-01  1.50743338453523945120e-04 0
5.99999999999999977796e-01  5.00000000000000027756e-02  1.48623673860427907290e-01  1.54343489230074348839e-04 0
6.25000000000000000000e-01  5.00000000000000027756e-02  1.44369748824980242974e-01  1.56851605041474773117e-04 0
6.50000000000000022204e-01  5.00000000000000027756e-02  1.39225919885870519366e-01  1.58209072892351310102e-04 0
6.75000000000000044409e-01  5.00000000000000027756e-02  1.33223949552233933424e-01  1.58358430313032538805e-04 0
6.99999999999999955591e-01  5.00000000000000027756e-02  1.26400898858420762672e-01  1.57241865079621456758e-04 0
7.24999999999999977796e-01  5.00000000000000027756e-02  1.18798901207590193452e-01  1.54799234450858635981e-04 0
7.50000000000000000000e-01  5.00000000000000027756e-02  1.10464905639349852962e-01  1.50965401887304118134e-04 0
7.75000000000000022204e-01  5.00000000000000027756e-02  1.01450391431312042512e-01  1.45666580642259124723e-04 0
8.00000000000000044409e-01  5.00000000000000027756e-02  9.18110563124961975845e-02  1.38815188413993206851e-04 0
8.24999999999999955591e-01  5.00000000000000027756e-02  8.16064810651628280702e-02  1.30302390465089623639e-04 0
8.49999999999999977796e-01  5.00000000000000027756e-02  7.08997740494640149578e-02  1.19986910639066635120e-04 0
8.75000000000000000000e-01  5.00000000000000027756e-02  5.97572004669520429054e-02  1.07677554840167333250e-04 0
9.00000000000000022204e-01  5.00000000000000027756e-02  4.82478035318365389150e-02  9.31046715484037945565e-05 0
9.25000000000000044409e-01  5.00000000000000027756e-02  3.64430292331921756865e-02  7.58713777284508728016e-05 0
9.49999999999999955591e-01  5.00000000000000027756e-02  2.44163748717380994779e-02  5.53669806851314616480e-05 0
9.74999999999999977796e-01  5.00000000000000027756e-02  1.22430948759376934110e-02  3.06117917880134593478e-05 0
1.00000000000000000000e+00  5.00000000000000027756e-02  0.00000000000000000000e+00  1.91576966887847255886e-17 0
0.00000000000000000000e+00  7.49999999999999972244e-02  0.00000000000000000000e+00  0.00000000000000000000e+00 0
2.50000000000000013878e-02  7.49999999999999972244e-02  1.83257386571023805910e-02  9.82650711030610968244e-06 0
5.00000000000000027756e-02  7.49999999999999972244e-02  3.65322008418097823879e-02  1.33002308891766451993e-05 0
7.49999999999999972244e-02  7.49999999999999972244e-02  5.45086677351174428430e-02  1.19298293013853085043e-05 0
1.00000000000000005551e-01  7.49999999999999972244e-02  7.21454372754815748126e-02  6.85258596370974526479e-06 0
1.25000000000000000000e-01  7.49999999999999972244e-02  8.93345927222493202402e-02  1.08038784582542568558e-06 0
1.49999999999999994449e-01  7.49999999999999972244e-02  1.05970758306743642607e-01  1.12190920791704895620e-05 0
1.74999999999999988898e-01  7.49999999999999972244e-02  1.21951815663426749170e-01  2.30518908762439300730e-05 0
2.00000000000000011102e-01  7.49999999999999972244e-02  1.37179578926132778038e-01  3.61631644187621059672e-05 0
2.25000000000000005551e-01  7.49999999999999972244e-02  1.51560430558021319580e-01  5.02053899260335168009e-05 0
2.50000000000000000000e-01  7.49999999999999972244e-02  1.65005919135436190937e-01  6.48806836354709481895e-05 0
2.75000000000000022204e-01  7.49999999999999972244e-02  1.77433318885902774342e-01  7.99284317975490488095e-05 0
2.99999999999999988898e-01  7.49999999999999972244e-02  1.88766149758345685994e-01  9.51168591248885419986e-05 0
3.25000000000000011102e-01  7.49999999999999972244e-02  1.98934656225848133237e-01  1.10237179951899744168e-04 0
3.49999999999999977796e-01  7.49999999999999972244e-02  2.07876242764703761390e-01  1.25099472435330483222e-04 0
3.75000000000000000000e-01  7.49999999999999972244e-02  2.15535863905795210815e-01  1.39529720325909378786e-04 0
4.00000000000000022204e-01  7.49999999999999972244e-02  2.21866366839144818490e-01  1.53367654907116124363e-04 0
4.24999999999999988898e-01  7.49999999999999972244e-02  2.26828784722304194199e-01  1.66465147469180285711e-04 0
4.50000000000000011102e-01  7.49999999999999972244e-02  2.30392579068974812095e-01  1.78684977492543639599e-04 0
4.74999999999999977796e-01  7.49999999999999972244e-02  2.32535829857827919254e-01  1.89899849761199224218e-04 0
5.00000000000000000000e-01  7.49999999999999972244e-02  2.33245372291312647040e-01  1.99991564592744142104e-04 0
5.25000000000000022204e-01  7.49999999999999972244e-02  2.32516879442664581301e-01  2.08850264924537176725e-04 0
5.50000000000000044409e-01  7.49999999999999972244e-02  2.30354890350828733769e-01  2.16373695638594210067e-04 0
5.74999999999999955591e-01  7.49999999999999972244e-02  2.26772783453756482386e-01  2.22466416016919854570e-04 0
5.99999999999999977796e-01  7.49999999999999972244e-02  2.21792695587539473445e-01  2.27038906512488924960e-04 0
6.25000000000000000000e-01  7.49999999999999972244e-02  2.15445387120043269080e-01  2.30006506077851113901e-04 0
6.50000000000000022204e-01  7.49999999999999972244e-02  2.07770054131905301809e-01  2.31288105233817820050e-04 0
6.75000000000000044409e-01  7.49999999999999972244e-02  1.98814088904745084330e-01  2.30804501054976407559e-04 0
6.99999999999999955591e-01  7.49999999999999972244e-02  1.88632790327621951976e-01  2.28476289848622560186e-04 0
7.24999999999999977796e-01  7.49999999999999972244e-02  1.77289026191926463172e-01  2.24221125773860219255e-04 0
7.50000000000000000000e-01  7.49999999999999972244e-02  1.64852849719700073061e-01  2.17950099371588823516e-04 0
7.75000000000000022204e-01  7.49999999999999972244e-02  1.51401073075259101630e-01  2.09562872688279222544e-04 0
8.00000000000000044409e-01  7.49999999999999972244e-02  1.37016801070469207424e-01  1.98941020082360475740e-04 0
8.24999999999999955591e-01  7.49999999999999972244e-02  1.21788928834269422063e-01  1.85938720033598792192e-04 0
8.49999999999999977796e-01  7.49999999999999972244e-02  1.05811607950195785133e-01  1.70369448627055719570e-04 0
8.75000000000000000000e-01  7.49999999999999972244e-02  8.91836865811762719014e-02  1.51986528918901520058e-04 0
9.00000000000000022204e-01  7.49999999999999972244e-02  7.20081305191725418169e-02  1.30454170345351005977e-04 0
9.25000000000000044409e-01  7.49999999999999972244e-02  5.43914338693857607465e-02  1.05304036430331482421e-04 0
9.49999999999999955591e-01  7.49999999999999972244e-02  3.64430292331922728311e-02  7.58713777283606671809e-05 0
9.74999999999999977796e-01  7.49999999999999972244e-02  1.82747033282595269799e-02  4.12088217325787264933e-05 0
1.00000000000000000000e+00  7.49999999999999972244e-02  0.00000000000000000000e+00  2.85888117621923768679e-17 0
0.00000000000000000000e+00  1.00000000000000005551e-01  0.00000000000000000000e+00  0.00000000000000000000e+00 0
2.50000000000000013878e-02  1.00000000000000005551e-01  2.42536200293895186364e-02  8.42608619459894736536e-06 0
5.00000000000000027756e-02  1.00000000000000005551e-01  4.83511860095311024610e-02  1.02778061461736291982e-05 0
7.49999999999999972244e-02  1.00000000000000005551e-01  7.21454372754815748126e-02  6.85258596370974526479e-06 0
1.00000000000000005551e-01  1.00000000000000005551e-01  9.54907337062656513815e-02  7.69106260622987036868e-07 0
1.25000000000000000000e-01  1.00000000000000005551e-01  1.18243976152883817354e-01  1.17079136646991432968e-05 0
1.49999999999999994449e-01  1.00000000000000005551e-01  1.40265532006468629511e-01  2.52476978264415397035e-05 0
1.74999999999999988898e-01  1.00000000000000005551e-01  1.61420138261685081060e-01  4.07977720613683647599e-05 0
2.00000000000000011102e-01  1.00000000000000005551e-01  1.81577769795809446096e-01  5.78622055307509430833e-05 0
2.25000000000000005551e-01  1.00000000000000005551e-01  2.00614467121174672171e-01  7.60167764942420998153e-05 0
2.50000000000000000000e-01  1.00000000000000005551e-01  2.18413120004574579092e-01  9.48922198359125612654e-05 0
2.75000000000000022204e-01  1.00000000000000005551e-01  2.34864203814070277021e-01  1.14162180430948945187e-04 0
2.99999999999999988898e-01  1.00000000000000005551e-01  2.49866465447864005700e-01  1.33534552135966544384e-04 0
3.25000000000000011102e-01  1.00000000000000005551e-01  2.63327555652941136533e-01  1.52745219121563913234e-04 0
3.49999999999999977796e-01  1.00000000000000005551e-01  2.75164604576097149291e-01  1.71553497061105453270e-04 0
3.75000000000000000000e-01  1.00000000000000005551e-01  2.85304737522736384658e-01  1.89738778432924082296e-04 0
4.00000000000000022204e-01  1.00000000000000005551e-01  2.93685528115320892972e-01  2.07098030915620068271e-04 0
4.24999999999999988898e-01  1.00000000000000005551e-01  3.00255386324726203373e-01  2.23443897170660932261e-04 0
4.50000000000000011102e-01  1.00000000000000005551e-01  3.04973879178026818781e-01  2.38603211861976305386e-04 0
4.74999999999999977796e-01  1.00000000000000005551e-01  3.07811982313010490397e-01  2.52415797487082205208e-04 0
5.00000000000000000000e-01  1.00000000000000005551e-01  3.08752260943664091908e-01  2.64733431283303843884e-04 0
5.25000000000000022204e-01  1.00000000000000005551e-01  3.07788979215054159244e-01  2.75418895443413358493e-04 0
5.50000000000000044409e-01  1.00000000000000005551e-01  3.04928137354861628072e-01  2.84345035027167014618e-04 0
5.74999999999999955591e-01  1.00000000000000005551e-01  3.00187436468060231398e-01  2.91393753836688418346e-04 0
5.99999999999999977796e-01  1.00000000000000005551e-01  2.93596171267345718014e-01  2.96454878890850537232e-04 0
6.25000000000000000000e-01  1.00000000000000005551e-01  2.85195051482133976606e-01  2.99424819035332134831e-04 0
6.50000000000000022204e-01  1.00000000000000005551e-01  2.75035953141331279692e-01  3.00204931827030563340e-04 0
6.75000000000000044409e-01  1.00000000000000005551e-01  2.63181601378465412910e-01  2.98699493597343046503e-04 0
6.99999999999999955591e-01  1.00000000000000005551e-01  2.49705186862361178113e-01  2.94813137638794131590e-04 0
7.24999999999999977796e-01  1.00000000000000005551e-01  2.34689918414049153439e-01  2.88447580452072527279e-04 0
7.50000000000000000000e-01  1.00000000000000005551e-01  2.18228514835312442655e-01  2.79497389098076753911e-04 0
7.75000000000000022204e-01  1.00000000000000005551e-01  2.00422639453614354066e-01  2.67844444054615715700e-04 0
8.00000000000000044409e-01  1.00000000000000005551e-01  1.81382281393477007292e-01  2.53350607863245258500e-04 0
8.24999999999999955591e-01  1.00000000000000005551e-01  1.61225088130052457425e-01  2.35847903694019755960e-04 0
8.49999999999999977796e-01  1.00000000000000005551e-01  1.40075654476589511743e-01  2.15125227705587063198e-04 0
8.75000000000000000000e-01  1.00000000000000005551e-01  1.18064773783922452588e-01  1.90910282626091665215e-04 0
9.00000000000000022204e-01  1.00000000000000005551e-01  9.53286576602953433790e-02  1.62845152230958745143e-04 0
9.25000000000000044409e-01  1.00000000000000005551e-01  7.20081305191725695725e-02  1.30454170345337128190e-04 0
9.49999999999999955591e-01  1.00000000000000005551e-01  4.82478035318366568762e-02  9.31046715483066500418e-05 0
9.74999999999999977796e-01  1.00000000000000005551e-01  2.41952263657455174384e-02  4.99675774494404145720e-05 0
1.00000000000000000000e+00  1.00000000000000005551e-01  0.00000000000000000000e+00  3.78436673043414994129e-17 0
0.00000000000000000000e+00  1.25000000000000000000e-01  0.00000000000000000000e+00  0.00000000000000000000e+00 0
2.50000000000000013878e-02  1.25000000000000000000e-01  3.00308406844894612564e-02  5.84463109660690594005e-06 0
5.00000000000000027756e-02  1.25000000000000000000e-01  5.98699836478352107050e-02  5.10562604302128297817e-06 0
7.49999999999999972244e-02  1.25000000000000000000e-01  8.93345927222492924846e-02  1.08038784585318126119e-06 0
1.00000000000000005551e-01  1.25000000000000000000e-01  1.18243976152883886743e-01  1.17079136646297543578e-05 0
1.25000000000000000000e-01  1.25000000000000000000e-01  1.46420699588030694960e-01  2.59098186955464271364e-05 0
1.49999999999999994449e-01  1.25000000000000000000e-01  1.73691698279513168091e-01  4.29444219589847353546e-05 0
1.74999999999999988898e-01  1.25000000000000000000e-01  1.99889368405650802440e-01  6.21757456814864273298e-05 0
2.00000000000000011102e-01  1.25000000000000000000e-01  2.24852623966421694135e-01  8.30538744421849273181e-05 0
2.25000000000000005551e-01  1.25000000000000000000e-01  2.48427910162472120881e-01  1.05098115331270225425e-04 0
2.50000000000000000000e-01  1.25000000000000000000e-01  2.70470166555075164361e-01  1.27883518023286235632e-04 0
2.75000000000000022204e-01  1.25000000000000000000e-01  2.90843734458479441507e-01  1.51030448230837777146e-04 0
2.99999999999999988898e-01  1.25000000000000000000e-01  3.09423203591995932271e-01  1.74196657097502871636e-04 0
3.25000000000000011102e-01  1.25000000000000000000e-01  3.26094193376420760089e-01  1.97071290937489429496e-04 0
3.49999999999999977796e-01  1.25000000000000000000e-01  3.40754064565780667717e-01  2.19370370312332862994e-04 0
3.75000000000000000000e-01  1.25000000000000000000e-01  3.53312557228763091111e-01  2.40833364510695258076e-04 0
4.00000000000000022204e-01  1.25000000000000000000e-01  3.63692351456590401426e-01  2.61220572423892516412e-04 0
4.24999999999999988898e-01  1.25000000000000000000e-01  3.71829547578418628806e-01  2.80311087933360347790e-04 0
4.50000000000000011102e-01  1.25000000000000000000e-01  3.77674063107626689639e-01  2.97901178300474800409e-04 0
4.74999999999999977796e-01  1.25000000000000000000e-01  3.81189944116505252669e-01  3.13802940741847447015e-04 0
5.00000000000000000000e-01  1.25000000000000000000e-01  3.82355589236752335669e-01  3.27843128337446110265e-04 0
5.25000000000000022204e-01  1.25000000000000000000e-01  3.81163885003218794179e-01  3.39862054028305937692e-04 0
5.50000000000000044409e-01  1.25000000000000000000e-01  3.77622251793420737886e-01  3.49712492506371042111e-04 0
5.74999999999999955591e-01  1.25000000000000000000e-01  3.71752600161076196539e-01  3.57258505275848126104e-04 0
5.99999999999999977796e-01  1.25000000000000000000e-01  3.63591197914382158185e-01  3.62374114632191268726e-04 0
6.25000000000000000000e-01  1.25000000000000000000e-01  3.53188448845493718764e-01  3.64941747780067604623e-04 0
6.50000000000000022204e-01  1.25000000000000000000e-01  3.40608584573887707148e-01  3.64850362205293432538e-04 0
6.75000000000000044409e-01  1.25000000000000000000e-01  3.25929271520640218007e-01  3.61993146718087022151e-04 0
6.99999999999999955591e-01  1.25000000000000000000e-01  3.09241135581563242329e-01  3.56264667530192813416e-04 0
7.24999999999999977796e-01  1.25000000000000000000e-01  2.90647207613803859605e-01  3.47557292906419679213e-04 0
7.50000000000000000000e-01  1.25000000000000000000e-01  2.70262293392696750782e-01  3.35756680401755325249e-04 0
7.75000000000000022204e-01  1.25000000000000000000e-01  2.48212272233420710998e-01  3.20736044382735618896e-04 0
8.00000000000000044409e-01  1.25000000000000000000e-01  2.24633329003502024701e-01  3.02348837361882116781e-04 0
8.24999999999999955591e-01  1.25000000000000000000e-01  1.99671124768997398924e-01  2.80419382334917699495e-04 0
8.49999999999999977796e-01  1.25000000000000000000e-01  1.73479911792090879530e-01  2.54730909381301051653e-04 0
8.75000000000000000000e-01  1.25000000000000000000e-01  1.46221598958162779525e-01  2.25010448563517373444e-04 0
9.00000000000000022204e-01  1.25000000000000000000e-01  1.18064773783922410955e-01  1.90910282626147176366e-04 0
9.25000000000000044409e-01  1.25000000000000000000e-01  8.91836865811761053680e-02  1.51986528919095809087e-04 0
9.49999999999999955591e-01  1.25000000000000000000e-01  5.97572004669521261722e-02  1.07677554840104883205e-04 0
9.74999999999999977796e-01  1.25000000000000000000e-01  2.99677068715163939794e-02  5.72891818765089433363e-05 0
1.00000000000000000000e+00  1.25000000000000000000e-01  0.00000000000000000000e+00  4.68652040532629858459e-17 0
0.00000000000000000000e+00  1.49999999999999994449e-01  0.00000000000000000000e+00  0.00000000000000000000e+00 0
2.50000000000000013878e-02  1.49999999999999994449e-01  3.56220654796689101262e-02  2.38140107164386272132e-06 0
5.00000000000000027756e-02  1.49999999999999994449e-01  7.10180632685996210407e-02  1.69769150344667441033e-06 0
7.49999999999999972244e-02  1.49999999999999994449e-01  1.05970758306743670363e-01  1.12190920791427339864e-05 0
1.00000000000000005551e-01  1.49999999999999994449e-01  1.40265532006468629511e-01  2.52476978264415397035e-05 0
1.25000000000000000000e-01  1.49999999999999994449e-01  1.73691698279513195846e-01  4.29444219589569797790e-05 0
1.49999999999999994449e-01  1.49999999999999994449e-01  2.06043808920226528825e-01  6.35649335368748680253e-05 0
1.74999999999999988898e-01  1.49999999999999994449e-01  2.37122933544615527302e-01  8.64509639739718949158e-05 0
2.00000000000000011102e-01  1.49999999999999994449e-01  2.66737901420629586191e-01  1.11019007165868988096e-04 0
2.25000000000000005551e-01  1.49999999999999994449e-01  2.94706494910555449884e-01  1.36749105737965503948e-04 0
2.50000000000000000000e-01  1.49999999999999994449e-01  3.20856586032867041602e-01  1.63174927235998357133e-04 0
2.75000000000000022204e-01  1.49999999999999994449e-01  3.45027208836496901423e-01  1.89875491193758350050e-04 0
2.99999999999999988898e-01  1.49999999999999994449e-01  3.67069561074215011676e-01  2.16468499853461615601e-04 0
3.25000000000000011102e-01  1.49999999999999994449e-01  3.86847929251104838411e-01  2.42605062018730333051e-04 0
3.49999999999999977796e-01  1.49999999999999994449e-01  4.04240531629281585335e-01  2.67965558192029273954e-04 0
3.75000000000000000000e-01  1.49999999999999994449e-01  4.19140274256788569751e-01  2.92256407149305008630e-04 0
4.00000000000000022204e-01  1.49999999999999994449e-01  4.31455415588415325256e-01  3.15207524973826203052e-04 0
4.24999999999999988898e-01  1.49999999999999994449e-01  4.41110135791714652598e-01  3.36570301329830456893e-04 0