Titile = 'Poisson'  
VARIABLES = X, Y, U, Error, Rank 
zone N= 966, E = 1600
DATAPACKING=POINT, ZONETYPE=FETRIANGLE
0.00000000000000000000e+00  8.43750000000000000000e-01  0.00000000000000000000e+00  0.00000000000000000000e+00 27
6.25000000000000034694e-03  8.43750000000000000000e-01  9.23564653156434128833e-03  1.96120262210362078514e-05 27
1.25000000000000006939e-02  8.43750000000000000000e-01  1.84682078199992529000e-02  3.87412172155772449589e-05 27
1.87499999999999993061e-02  8.43750000000000000000e-01  2.77123043713963825019e-02  3.92003640981679335464e-05 27
2.50000000000000013878e-02  8.43750000000000000000e-01  3.69457173019307819062e-02  3.96443984939168214687e-05 27
3.12500000000000000000e-02  8.43750000000000000000e-01  4.61648869551491980445e-02  4.00731492215811169189e-05 27
3.74999999999999986122e-02  8.43750000000000000000e-01  5.53662591656590222233e-02  4.04864509859770294042e-05 27
4.37499999999999972244e-02  8.43750000000000000000e-01  6.45462866293172038423e-02  4.08841444511781615390e-05 27
5.00000000000000027756e-02  8.43750000000000000000e-01  7.37014302707841711948e-02  4.12660763012967501950e-05 27
5.62500000000000013878e-02  8.43750000000000000000e-01  8.28281606079096788253e-02  4.16320992946833667858e-05 27
6.25000000000000000000e-02  8.43750000000000000000e-01  9.19229591124165884564e-02  4.19820723193964351339e-05 27
6.87500000000000055511e-02  8.43750000000000000000e-01  1.00982319566343695105e-01  4.23158604645340608030e-05 27
7.49999999999999972244e-02  8.43750000000000000000e-01  1.10002749413804085110e-01  4.26333350274643585465e-05 27
8.12500000000000027756e-02  8.43750000000000000000e-01  1.18980771107355165483e-01  4.29343736404186326894e-05 27
8.74999999999999944489e-02  8.43750000000000000000e-01  1.27912923448754878297e-01  4.32188602219885087408e-05 27
9.37500000000000000000e-02  8.43750000000000000000e-01  1.36795762923222291585e-01  4.34866851192206027577e-05 27
1.00000000000000005551e-01  8.43750000000000000000e-01  1.45625865027073114755e-01  4.37377450548115387363e-05 27
1.06249999999999997224e-01  8.43750000000000000000e-01  1.54399825587823308348e-01  4.39719432747398553119e-05 27
1.12500000000000002776e-01  8.43750000000000000000e-01  1.63114262076659966016e-01  4.41891894878698732185e-05 27
1.18749999999999994449e-01  8.43750000000000000000e-01  1.71765814912480191401e-01  4.43893998912092691000e-05 27
1.25000000000000000000e-01  8.43750000000000000000e-01  1.80351148756921875194e-01  4.45724973539007862655e-05 27
1.31250000000000005551e-01  8.43750000000000000000e-01  1.88866953800361114801e-01  4.47384112859661176032e-05 27
1.37500000000000011102e-01  8.43750000000000000000e-01  1.97309947037896782351e-01  4.48870776755538880565e-05 27
1.43749999999999988898e-01  8.43750000000000000000e-01  2.05676873534837573176e-01  4.50184392873920202760e-05 27
1.49999999999999994449e-01  8.43750000000000000000e-01  2.13964507681837862174e-01  4.51324453885071363857e-05 27
1.56250000000000000000e-01  8.43750000000000000000e-01  2.22169654438108571393e-01  4.52290520904230497479e-05 27
1.62500000000000005551e-01  8.43750000000000000000e-01  2.30289150563427108542e-01  4.53082221053002776046e-05 27
1.68750000000000011102e-01  8.43750000000000000000e-01  2.38319865837376076989e-01  4.53699250110572993577e-05 27
1.74999999999999988898e-01  8.43750000000000000000e-01  2.46258704266464678589e-01  4.54141369010396811490e-05 27
1.81249999999999994449e-01  8.43750000000000000000e-01  2.54102605277318260857e-01  4.54408407683515314091e-05 27
1.87500000000000000000e-01  8.43750000000000000000e-01  2.61848544896818191674e-01  4.54500262815349387324e-05 27
1.93750000000000005551e-01  8.43750000000000000000e-01  2.69493536917613685233e-01  4.54416900761978048706e-05 27
2.00000000000000011102e-01  8.43750000000000000000e-01  2.77034634050018824247e-01  4.54158350988720371788e-05 27
2.06249999999999988898e-01  8.43750000000000000000e-01  2.84468929057365205182e-01  4.53724714897241199196e-05 27
2.12499999999999994449e-01  8.43750000000000000000e-01  2.91793555877371657559e-01  4.53116160037958515261e-05 27
2.18750000000000000000e-01  8.43750000000000000000e-01  2.99005690727103257132e-01  4.52332919672060462801e-05 27
2.25000000000000005551e-01  8.43750000000000000000e-01  3.06102553191258730525e-01  4.51375296027789474351e-05 27
2.31250000000000011102e-01  8.43750000000000000000e-01  3.13081407294129476782e-01  4.50243659624871561675e-05 27
2.37499999999999988898e-01  8.43750000000000000000e-01  3.19939562554816259166e-01  4.48938444669866321135e-05 27
2.43749999999999994449e-01  8.43750000000000000000e-01  3.26674375023711105470e-01  4.47460156389745122851e-05 27
2.50000000000000000000e-01  8.43750000000000000000e-01  3.33283248302636114779e-01  4.45809362372706630140e-05 27
2.56249999999999977796e-01  8.43750000000000000000e-01  3.39763634544942794147e-01  4.43986700969789538362e-05 27
2.62500000000000011102e-01  8.43750000000000000000e-01  3.46113035438343430439e-01  4.41992875167551702020e-05 27
2.68749999999999988898e-01  8.43750000000000000000e-01  3.52329003168154575310e-01  4.39828651349061239273e-05 27
2.75000000000000022204e-01  8.43750000000000000000e-01  3.58409141360325422809e-01  4.37494865511700581351e-05 27
2.81250000000000000000e-01  8.43750000000000000000e-01  3.64351106005778579977e-01  4.34992418008595116419e-05 27
2.87499999999999977796e-01  8.43750000000000000000e-01  3.70152606364224701085e-01  4.32322271661234047713e-05 27
2.93750000000000011102e-01  8.43750000000000000000e-01  3.75811405846633528327e-01  4.29485457918432622648e-05 27
2.99999999999999988898e-01  8.43750000000000000000e-01  3.81325322878317551911e-01  4.26483068093341799454e-05 27
3.06250000000000022204e-01  8.43750000000000000000e-01  3.86692231739226122134e-01  4.23316260392270216073e-05 27
3.12500000000000000000e-01  8.43750000000000000000e-01  3.91910063383456352959e-01  4.19986259410642936984e-05 27
3.18749999999999977796e-01  8.43750000000000000000e-01  3.96976806238343304933e-01  4.16494341329287642850e-05 27
3.25000000000000011102e-01  8.43750000000000000000e-01  4.01890506977193029403e-01  4.12841861085477823679e-05 27
3.31249999999999988898e-01  8.43750000000000000000e-01  4.06649271275651313928e-01  4.09030218606609707876e-05 27
3.37500000000000022204e-01  8.43750000000000000000e-01  4.11251264538904481860e-01  4.05060889248076705371e-05 27
3.43750000000000000000e-01  8.43750000000000000000e-01  4.15694712611002381575e-01  4.00935402704027943344e-05 27
3.49999999999999977796e-01  8.43750000000000000000e-01  4.19977902458633867155e-01  3.96655344372387475005e-05 27
3.56250000000000011102e-01  8.43750000000000000000e-01  4.24099182830092680252e-01  3.92222369155481587200e-05 27
3.62499999999999988898e-01  8.43750000000000000000e-01  4.28056964893219593637e-01  3.87638187286376556528e-05 27
3.68750000000000022204e-01  8.43750000000000000000e-01  4.31849722848250183738e-01  3.82904560449759401308e-05 27
3.75000000000000000000e-01  8.43750000000000000000e-01  4.35475994514359754373e-01  3.78023317892384191907e-05 27
3.81249999999999977796e-01  8.43750000000000000000e-01  4.38934381895085656833e-01  3.72996338487974199438e-05 27
3.87500000000000011102e-01  8.43750000000000000000e-01  4.42223551715785312410e-01  3.67825564973056629015e-05 27
3.93749999999999988898e-01  8.43750000000000000000e-01  4.45342235939459707428e-01  3.62512984986573805202e-05 27
4.00000000000000022204e-01  8.43750000000000000000e-01  4.48289232253652636384e-01  3.57060649842089183892e-05 27
4.06250000000000000000e-01  8.43750000000000000000e-01  4.51063404535161083242e-01  3.51470661770769687848e-05 27
4.12499999999999977796e-01  8.43750000000000000000e-01  4.53663683287641339437e-01  3.45745177021683502971e-05 27
4.18750000000000011102e-01  8.43750000000000000000e-01  4.56089066054781111514e-01  3.39886396426569703522e-05 27
4.24999999999999988898e-01  8.43750000000000000000e-01  4.58338617804682380008e-01  3.33896585376636245712e-05 27
4.31250000000000022204e-01  8.43750000000000000000e-01  4.60411471292329232963e-01  3.27778052999772029352e-05 27
4.37500000000000000000e-01  8.43750000000000000000e-01  4.62306827393883457145e-01  3.21533151707020792287e-05 27
4.43749999999999977796e-01  8.43750000000000000000e-01  4.64023955412801669684e-01  3.15164295892067514160e-05 27
4.50000000000000011102e-01  8.43750000000000000000e-01  4.65562193363729115436e-01  3.08673939035664091080e-05 27
4.56249999999999988898e-01  8.43750000000000000000e-01  4.66920948226949794613e-01  3.02064580334771015657e-05 27
4.62500000000000022204e-01  8.43750000000000000000e-01  4.68099696176362045641e-01  2.95338770191500010753e-05 27
4.68750000000000000000e-01  8.43750000000000000000e-01  4.69097982781944145003e-01  2.88499104020289998118e-05 27
4.74999999999999977796e-01  8.43750000000000000000e-01  4.69915423185940595019e-01  2.81548211302218298613e-05 27
4.81250000000000011102e-01  8.43750000000000000000e-01  4.70551702248436010123e-01  2.74488782526782770788e-05 27
4.87499999999999988898e-01  8.43750000000000000000e-01  4.71006574672949207550e-01  2.67323527143314976229e-05 27
4.93750000000000022204e-01  8.43750000000000000000e-01  4.71279865096683903136e-01  2.60055215671739503591e-05 27
5.00000000000000000000e-01  8.43750000000000000000e-01  4.71371468160954321114e-01  2.52686650435429704942e-05 27
5.06249999999999977796e-01  8.43750000000000000000e-01  4.71281348551741141595e-01  2.45220665099354917515e-05 27
5.12499999999999955591e-01  8.43750000000000000000e-01  4.71009541011020216317e-01  2.37660146433227303930e-05 27
5.18750000000000044409e-01  8.43750000000000000000e-01  4.70556150326491784419e-01  2.30008001969039810319e-05 27
5.25000000000000022204e-01  8.43750000000000000000e-01  4.69921351288165312088e-01  2.22267189055047609259e-05 27
5.31250000000000000000e-01  8.43750000000000000000e-01  4.69105388623997032749e-01  2.14440683491967654106e-05 27
5.37499999999999977796e-01  8.43750000000000000000e-01  4.68108576902243833651e-01  2.06531511373619913741e-05 27
5.43749999999999955591e-01  8.43750000000000000000e-01  4.66931300413731431576e-01  1.98542712518401387456e-05 27
5.50000000000000044409e-01  8.43750000000000000000e-01  4.65574013019846522088e-01  1.90477377861042462825e-05 27
5.56250000000000022204e-01  8.43750000000000000000e-01  4.64037237981988481827e-01  1.82338604023946082577e-05 27
5.62500000000000000000e-01  8.43750000000000000000e-01  4.62321567755189344329e-01  1.74129538648148951552e-05 27
5.68749999999999977796e-01  8.43750000000000000000e-01  4.60427663763200989422e-01  1.65853344282207437743e-05 27
5.74999999999999955591e-01  8.43750000000000000000e-01  4.58356256142455176228e-01  1.57513207649229158847e-05 27
5.81250000000000044409e-01  8.43750000000000000000e-01  4.56108143459704129530e-01  1.49112347196389549708e-05 27
5.87500000000000022204e-01  8.43750000000000000000e-01  4.53684192405476027776e-01  1.40653998674800106983e-05 27
5.93750000000000000000e-01  8.43750000000000000000e-01  4.51085337457962198826e-01  1.32141433759613846632e-05 27
5.99999999999999977796e-01  8.43750000000000000000e-01  4.48312580526899595590e-01  1.23577917373052237338e-05 27
6.06249999999999955591e-01  8.43750000000000000000e-01  4.45366990561847586605e-01  1.14966761108337145458e-05 27
6.12500000000000044409e-01  8.43750000000000000000e-01  4.42249703143716366149e-01  1.06311285661964127769e-05 27
6.18750000000000022204e-01  8.43750000000000000000e-01  4.38961920046531339779e-01  9.76148240316998538901e-06 27
6.25000000000000000000e-01  8.43750000000000000000e-01  4.35504908773399757038e-01  8.88807274923575363346e-06 27
6.31249999999999977796e-01  8.43750000000000000000e-01  4.31880002067164869839e-01  8.01123713028983885920e-06 27
6.37499999999999955591e-01  8.43750000000000000000e-01  4.28088597399656600739e-01  7.13131229174157610373e-06 27
6.43750000000000044409e-01  8.43750000000000000000e-01  4.24132156428038142870e-01  6.24863897003002932706e-06 27
6.50000000000000022204e-01  8.43750000000000000000e-01  4.20012204437154257342e-01  5.36355591690407251804e-06 27
6.56250000000000000000e-01  8.43750000000000000000e-01  4.15730329745605253766e-01  4.47640566758611413434e-06 27
6.62499999999999977796e-01  8.43750000000000000000e-01  4.11288183098257043024e-01  3.58752957235752845122e-06 27
6.68749999999999955591e-01  8.43750000000000000000e-01  4.06687477027444399535e-01  2.69727006763087473473e-06 27
6.75000000000000044409e-01  8.43750000000000000000e-01  4.01929985191991911986e-01  1.80597130972071084898e-06 27
6.81250000000000022204e-01  8.43750000000000000000e-01  3.97017541696540077201e-01  9.13975936156496970852e-07 27
6.87500000000000000000e-01  8.43750000000000000000e-01  3.91952040381392807777e-01  2.16280046649863777475e-08 27
6.93749999999999977796e-01  8.43750000000000000000e-01  3.86735434092977614640e-01  8.70727712265484399268e-07 27
6.99999999999999955591e-01  8.43750000000000000000e-01  3.81369733933128673975e-01  1.76274800178788382254e-06 27
7.06250000000000044409e-01  8.43750000000000000000e-01  3.75857008481552512524e-01  2.65408912714093503382e-06 27
7.12500000000000022204e-01  8.43750000000000000000e-01  3.70199382997749681934e-01  3.54440635885744370626e-06 27
7.18750000000000000000e-01  8.43750000000000000000e-01  3.64399038605012159930e-01  4.43335743266493054193e-06 27
7.24999999999999977796e-01  8.43750000000000000000e-01  3.58458211446651686671e-01  5.32059977509380388483e-06 27
7.31249999999999955591e-01  8.43750000000000000000e-01  3.52379191823542492479e-01  6.20579025284451191169e-06 27
7.37500000000000044409e-01  8.43750000000000000000e-01  3.46164323314426536360e-01  7.08858856640626200374e-06 27
7.43750000000000022204e-01  8.43750000000000000000e-01  3.39816001869314265882e-01  7.96865427438175899510e-06 27
7.50000000000000000000e-01  8.43750000000000000000e-01  3.33336674886396511219e-01  8.84564752307026580525e-06 27
7.56249999999999977796e-01  8.43750000000000000000e-01  3.26728840270267051338e-01  9.71923091697135532741e-06 27
7.62499999999999955591e-01  8.43750000000000000000e-01  3.19995045466576866211e-01  1.05890672934538798700e-05 27
7.68750000000000044409e-01  8.43750000000000000000e-01  3.13137886481674898587e-01  1.14548215830456712183e-05 27
7.75000000000000022204e-01  8.43750000000000000000e-01  3.06160006880109969440e-01  1.23161592484044568607e-05 27
7.81250000000000000000e-01  8.43750000000000000000e-01  2.99064096768574927410e-01  1.31727495044642317623e-05 27
7.87499999999999977796e-01  8.43750000000000000000e-01  2.91852891754144749825e-01  1.40242607691853926610e-05 27
7.93749999999999955591e-01  8.43750000000000000000e-01  2.84529171894824073341e-01  1.48703659690885281464e-05 27
8.00000000000000044409e-01  8.43750000000000000000e-01  2.77095760622965037179e-01  1.57107378472853831397e-05 27
8.06250000000000022204e-01  8.43750000000000000000e-01  2.69555523661125062684e-01  1.65450534351796463284e-05 27
8.12500000000000000000e-01  8.43750000000000000000e-01  2.61911367913337245206e-01  1.73729902375185929486e-05 27
8.18749999999999977796e-01  8.43750000000000000000e-01  2.54166240347504512886e-01  1.81942294177894758889e-05 27
8.24999999999999955591e-01  8.43750000000000000000e-01  2.46323126858085605928e-01  1.90084547198321462957e-05 27
8.31250000000000044409e-01  8.43750000000000000000e-01  2.38385051113871093698e-01  1.98153514839594091512e-05 27
8.37500000000000022204e-01  8.43750000000000000000e-01  2.30355073394744730431e-01  2.06146092123493662740e-05 27
8.43750000000000000000e-01  8.43750000000000000000e-01  2.22236289410047638260e-01  2.14059198485605506335e-05 27
8.49999999999999977796e-01  8.43750000000000000000e-01  2.14031829104959658849e-01  2.21889777332340276672e-05 27
8.56249999999999955591e-01  8.43750000000000000000e-01  2.05744855455602976280e-01  2.29634814777890383652e-05 27
8.62500000000000044409e-01  8.43750000000000000000e-01  1.97378563248154892396e-01  2.37291325826116672459e-05 27
8.68750000000000022204e-01  8.43750000000000000000e-01  1.88936177846948161196e-01  2.44856353009692551126e-05 27
8.75000000000000000000e-01  8.43750000000000000000e-01  1.80420953952749207883e-01  2.52326984733763914903e-05 27
8.81249999999999977796e-01  8.43750000000000000000e-01  1.71836174346535530688e-01  2.59700341641300180839e-05 27
8.87499999999999955591e-01  8.43750000000000000000e-01  1.63185148623706560711e-01  2.66973575585860434245e-05 27
8.93750000000000044409e-01  8.43750000000000000000e-01  1.54471211919914891419e-01  2.74143888169264826615e-05 27
9.00000000000000022204e-01  8.43750000000000000000e-01  1.45697723623479602484e-01  2.81208513516206792815e-05 27
9.06250000000000000000e-01  8.43750000000000000000e-01  1.36868066080942096807e-01  2.88164726005568638811e-05 27
9.12499999999999977796e-01  8.43750000000000000000e-01  1.27985643293646145224e-01  2.95009846691118848838e-05 27
9.18749999999999955591e-01  8.43750000000000000000e-01  1.19053879604525958413e-01  3.01741235302632748727e-05 27
9.25000000000000044409e-01  8.43750000000000000000e-01  1.10076218378579171464e-01  3.08356297475526064389e-05 27
9.31250000000000022204e-01  8.43750000000000000000e-01  1.01056120674868812892e-01  3.14852480605976037253e-05 27
9.37500000000000000000e-01  8.43750000000000000000e-01  9.19970639131681006129e-02  3.21227284319491879216e-05 27
9.43749999999999977796e-01  8.43750000000000000000e-01  8.29025405318966762680e-02  3.27478246922030535870e-05 27
9.49999999999999955591e-01  8.43750000000000000000e-01  7.37760566432444642171e-02  3.33602961589407609466e-05 27
9.56250000000000044409e-01  8.43750000000000000000e-01  6.46211306802932650140e-02  3.39599065248691323049e-05 27
9.62500000000000022204e-01  8.43750000000000000000e-01  5.54412920414343243780e-02  3.45464247893667586453e-05 27
9.68750000000000000000e-01  8.43750000000000000000e-01  4.62400797290347109758e-02  3.51196246638277309593e-05 27
9.74999999999999977796e-01  8.43750000000000000000e-01  3.70210409857054043026e-02  3.56792852806500637719e-05 27
9.81249999999999955591e-01  8.43750000000000000000e-01  2.77877299263848340227e-02  3.62251908900684815862e-05 27
9.87500000000000044409e-01  8.43750000000000000000e-01  1.85437061681759697562e-02  3.67571309611881835711e-05 27
9.93750000000000022204e-01  8.43750000000000000000e-01  9.27387834960918290561e-03  1.86197918236961218463e-05 27
1.00000000000000000000e+00  8.43750000000000000000e-01  0.00000000000000000000e+00  5.77294504882465529668e-17 27
0.00000000000000000000e+00  8.49999999999999977796e-01  0.00000000000000000000e+00  0.00000000000000000000e+00 27
6.25000000000000034694e-03  8.49999999999999977796e-01  8.89371921900397773009e-03  1.97906329292372312745e-05 27
1.25000000000000006939e-02  8.49999999999999977796e-01  1.77844899104868392481e-02  3.90934656552578696509e-05 27
1.87499999999999993061e-02  8.49999999999999977796e-01  2.66872516299296556885e-02  3.95339397423928595732e-05 27
2.50000000000000013878e-02  8.49999999999999977796e-01  3.55797249058558764934e-02  3.99591727413967090499e-05 27
3.12500000000000000000e-02  8.49999999999999977796e-01  4.44584815205387451353e-02  4.03690007197629596725e-05 27
3.74999999999999986122e-02  8.49999999999999977796e-01  5.33200985442928224178e-02  4.07632656766326872955e-05 27
4.37499999999999972244e-02  8.49999999999999977796e-01  6.21611596550564193819e-02  4.11418156257906120210e-05 27
5.00000000000000027756e-02  8.49999999999999977796e-01  7.09782564554887196451e-02  4.15045046143619478229e-05 27
5.62500000000000013878e-02  8.49999999999999977796e-01  7.97679897869195547733e-02  4.18511928313297643101e-05 27
6.25000000000000000000e-02  8.49999999999999977796e-01  8.85269710398341874713e-02  4.21817466169926991171e-05 27
6.87500000000000055511e-02  8.49999999999999977796e-01  9.72518234602294945335e-02  4.24960385319445022034e-05 27
7.49999999999999972244e-02  8.49999999999999977796e-01  1.05939183451401561231e-01  4.27939474212796211461e-05 27
8.12500000000000027756e-02  8.49999999999999977796e-01  1.14585701870722242446e-01  4.30753584156062796495e-05 27
8.74999999999999944489e-02  8.49999999999999977796e-01  1.23188045320724207099e-01  4.33401630482721511584e-05 27
9.37500000000000000000e-02  8.49999999999999977796e-01  1.31742897434251243771e-01  4.35882592351721775970e-05 27
1.00000000000000005551e-01  8.49999999999999977796e-01  1.40246960152989041948e-01  4.38195513060568586639e-05 27
1.06249999999999997224e-01  8.49999999999999977796e-01  1.48696954998871866405e-01  4.40339500988318199859e-05 27
1.12500000000000002776e-01  8.49999999999999977796e-01  1.57089624338010019899e-01  4.42313729822618739718e-05 27
1.18749999999999994449e-01  8.49999999999999977796e-01  1.65421732636634261082e-01  4.44117438233304628881e-05 27
1.25000000000000000000e-01  8.49999999999999977796e-01  1.73690067708390710743e-01  4.45749930814698380743e-05 27
1.31250000000000005551e-01  8.49999999999999977796e-01  1.81891441952692467510e-01  4.47210578427559291015e-05 27
1.37500000000000011102e-01  8.49999999999999977796e-01  1.90022693583663304651e-01  4.48498817812170713637e-05 27
1.43749999999999988898e-01  8.49999999999999977796e-01  1.98080687849022718527e-01  4.49614152240040976238e-05 27
1.49999999999999994449e-01  8.49999999999999977796e-01  2.06062318238529107450e-01  4.50556152343517535286e-05 27
1.56250000000000000000e-01  8.49999999999999977796e-01  2.13964507681870030886e-01  4.51324453562829130959e-05 27
1.62500000000000005551e-01  8.49999999999999977796e-01  2.21784209734374293532e-01  4.51918761860681250653e-05 27
1.68750000000000011102e-01  8.49999999999999977796e-01  2.29518409752325625028e-01  4.52338845322308724661e-05 27
1.74999999999999988898e-01  8.49999999999999977796e-01  2.37164126054070140137e-01  4.52584545194145704272e-05 27
1.81249999999999994449e-01  8.49999999999999977796e-01  2.44718411070764113591e-01  4.52655763420461987323e-05 27
1.87500000000000000000e-01  8.49999999999999977796e-01  2.52178352481396583773e-01  4.52552475890821703786e-05 27
1.93750000000000005551e-01  8.49999999999999977796e-01  2.59541074336804067357e-01  4.52274719857648221932e-05 27
2.00000000000000011102e-01  8.49999999999999977796e-01  2.66803738167472548337e-01  4.51822603229623531718e-05 27
2.06249999999999988898e-01  8.49999999999999977796e-01  2.73963544078167198226e-01  4.51196301076151051745e-05 27
2.12499999999999994449e-01  8.49999999999999977796e-01  2.81017731827619132723e-01  4.50396052820711823017e-05 27
2.18750000000000000000e-01  8.49999999999999977796e-01  2.87963581891856224004e-01  4.49422170095692408154e-05 27
2.25000000000000005551e-01  8.49999999999999977796e-01  2.94798416513794125926e-01  4.48275024993449733302e-05 27
2.31250000000000011102e-01  8.49999999999999977796e-01  3.01519600734294124234e-01  4.46955062610165931858e-05 27
2.37499999999999988898e-01  8.49999999999999977796e-01  3.08124543409118822890e-01  4.45462789583350726730e-05 27
2.43749999999999994449e-01  8.49999999999999977796e-01  3.14610698207009376048e-01  4.43798782483462161963e-05 27
2.50000000000000000000e-01  8.49999999999999977796e-01  3.20975564591812978499e-01  4.41963682901169718775e-05 27
2.56249999999999977796e-01  8.49999999999999977796e-01  3.27216688786501841424e-01  4.39958197059886479963e-05 27
2.62500000000000011102e-01  8.49999999999999977796e-01  3.33331664718745313003e-01  4.37783099596633640260e-05 27
2.68749999999999988898e-01  8.49999999999999977796e-01  3.39318134948987548682e-01  4.35439228352874074801e-05 27
2.75000000000000022204e-01  8.49999999999999977796e-01  3.45173791578946675962e-01  4.32927487440948333131e-05 27
2.81250000000000000000e-01  8.49999999999999977796e-01  3.50896377141732884741e-01  4.30248843097391642232e-05 27
2.87499999999999977796e-01  8.49999999999999977796e-01  3.56483685471232325526e-01  4.27404332442038459305e-05 27
2.93750000000000011102e-01  8.49999999999999977796e-01  3.61933562554321797133e-01  4.24395046117465035707e-05 27
2.99999999999999988898e-01  8.49999999999999977796e-01  3.67243907359150301151e-01  4.21222149182831628877e-05 27
3.06250000000000022204e-01  8.49999999999999977796e-01  3.72412672646860065662e-01  4.17886863335326097513e-05 27
3.12500000000000000000e-01  8.49999999999999977796e-01  3.77437865760171409324e-01  4.14390473083559029988e-05 27
3.18749999999999977796e-01  8.49999999999999977796e-01  3.82317549391309852158e-01  4.10734328057382747090e-05 27
3.25000000000000011102e-01  8.49999999999999977796e-01  3.87049842329412641107e-01  4.06919837110386595214e-05 27
3.31249999999999988898e-01  8.49999999999999977796e-01  3.91632920185421118386e-01  4.02948471276420860931e-05 27
3.37500000000000022204e-01  8.49999999999999977796e-01  3.96065016095777100436e-01  3.98821759612366655290e-05 27
3.43750000000000000000e-01  8.49999999999999977796e-01  4.00344421402943462240e-01  3.94541294991834767814e-05 27
3.49999999999999977796e-01  8.49999999999999977796e-01  4.04469486314510962011e-01  3.90108729627636208193e-05 27
3.56250000000000011102e-01  8.49999999999999977796e-01  4.08438620540081009924e-01  3.85525765868033332140e-05 27
3.62499999999999988898e-01  8.49999999999999977796e-01  4.12250293902122644241e-01  3.80794177841647929483e-05 27
3.68750000000000022204e-01  8.49999999999999977796e-01  4.15903036928532754413e-01  3.75915784303071376371e-05 27
3.75000000000000000000e-01  8.49999999999999977796e-01  4.19395441416860415007e-01  3.70892470775707749908e-05 27
3.81249999999999977796e-01  8.49999999999999977796e-01  4.22726160979071730051e-01  3.65726170069580192035e-05 27
3.87500000000000011102e-01  8.49999999999999977796e-01  4.25893911559606874739e-01  3.60418871547807384559e-05 27
3.93749999999999988898e-01  8.49999999999999977796e-01  4.28897471929386930878e-01  3.54972630565164593008e-05 27
4.00000000000000022204e-01  8.49999999999999977796e-01  4.31735684159713972718e-01  3.49389536752897633676e-05 27
4.06250000000000000000e-01  8.49999999999999977796e-01  4.34407454065292297773e-01  3.43671747030094287823e-05 27
4.12499999999999977796e-01  8.49999999999999977796e-01  4.36911751627973021783e-01  3.37821465620224969939e-05 27
4.18750000000000011102e-01  8.49999999999999977796e-01  4.39247611393210390940e-01  3.31840949558959152910e-05 27
4.24999999999999988898e-01  8.49999999999999977796e-01  4.41414132843150952556e-01  3.25732498936415204582e-05 27
4.31250000000000022204e-01  8.49999999999999977796e-01  4.43410480741985024711e-01  3.19498474167789758837e-05 27
4.37500000000000000000e-01  8.49999999999999977796e-01  4.45235885459607627634e-01  3.13141278465711714318e-05 27
4.43749999999999977796e-01  8.49999999999999977796e-01  4.46889643268309988411e-01  3.06663357069747455341e-05 27
4.50000000000000011102e-01  8.49999999999999977796e-01  4.48371116612324038808e-01  3.00067213863108861460e-05 27
4.56249999999999988898e-01  8.49999999999999977796e-01  4.49679734355822202652e-01  2.93355388307769970879e-05 27
4.62500000000000022204e-01  8.49999999999999977796e-01  4.50814992001601133609e-01  2.86530469465473558444e-05 27
4.68750000000000000000e-01  8.49999999999999977796e-01  4.51776451886451768658e-01  2.79595086232209411037e-05 27
4.74999999999999977796e-01  8.49999999999999977796e-01  4.52563743348966429636e-01  2.72551915529439803265e-05 27
4.81250000000000011102e-01  8.49999999999999977796e-01  4.53176562873888799654e-01  2.65403666740438026750e-05 27
4.87499999999999988898e-01  8.49999999999999977796e-01  4.53614674206548829094e-01  2.58153106427183587357e-05 27
4.93750000000000022204e-01  8.49999999999999977796e-01  4.53877908447990918717e-01  2.50803016789702404310e-05 27
5.00000000000000000000e-01  8.49999999999999977796e-01  4.53966164115484793751e-01  2.43356240620662411800e-05 27
5.06249999999999977796e-01  8.49999999999999977796e-01  4.53879407184914929196e-01  2.35815647549597606769e-05 27
5.12499999999999955591e-01  8.49999999999999977796e-01  4.53617671103251351994e-01  2.28184139401954588777e-05 27
5.18750000000000044409e-01  8.49999999999999977796e-01  4.53181056773981849606e-01  2.20464665809938509256e-05 27
5.25000000000000022204e-01  8.49999999999999977796e-01  4.52569732521128365033e-01  2.12660193910085837388e-05 27
5.31250000000000000000e-01  8.49999999999999977796e-01  4.51783934020697164335e-01  2.04773743778807748583e-05 27
5.37499999999999977796e-01  8.49999999999999977796e-01  4.50823964214166539310e-01  1.96808343811416541769e-05 27
5.43749999999999955591e-01  8.49999999999999977796e-01  4.49690193187093689708e-01  1.88767075592899402636e-05 27
5.50000000000000044409e-01  8.49999999999999977796e-01  4.48383058030855763398e-01  1.80653028545307847708e-05 27
5.56250000000000022204e-01  8.49999999999999977796e-01  4.46903062669736672596e-01  1.72469342802905600820e-05 27
5.62500000000000000000e-01  8.49999999999999977796e-01  4.45250777671384601053e-01  1.64219160695977528519e-05 27
5.68749999999999977796e-01  8.49999999999999977796e-01  4.43426840022180246415e-01  1.55905672215572721484e-05 27
5.74999999999999955591e-01  8.49999999999999977796e-01  4.41431952885199707648e-01  1.47532078449419401522e-05 27
5.81250000000000044409e-01  8.49999999999999977796e-01  4.39266885327379397186e-01  1.39101607868896692821e-05 27
5.87500000000000022204e-01  8.49999999999999977796e-01  4.36932472023051132748e-01  1.30617514839115322900e-05 27
5.93750000000000000000e-01  8.49999999999999977796e-01  4.34429612934353559517e-01  1.22083056417476853994e-05 27
5.99999999999999977796e-01  8.49999999999999977796e-01  4.31759272958828654865e-01  1.13501545606631282226e-05 27
6.06249999999999955591e-01  8.49999999999999977796e-01  4.28922481565911339896e-01  1.04876265321629524863e-05 27
6.12500000000000044409e-01  8.49999999999999977796e-01  4.25920332390681777301e-01  9.62105607982266519684e-06 27
6.18750000000000022204e-01  8.49999999999999977796e-01  4.22753982819421780803e-01  8.75077665696277762208e-06 27
6.25000000000000000000e-01  8.49999999999999977796e-01  4.19424653541071779106e-01  7.87712286620667612169e-06 27