Titile = 'Poisson'  
VARIABLES = X, Y, U, Error, Rank 
zone N= 1771, E = 3200
DATAPACKING=POINT, ZONETYPE=FETRIANGLE
0.00000000000000000000e+00  6.25000000000000000000e-01  0.00000000000000000000e+00  0.00000000000000000000e+00 10
6.25000000000000034694e-03  6.25000000000000000000e-01  1.81378948633193204376e-02  1.27174867632987020905e-06 10
1.25000000000000006939e-02  6.25000000000000000000e-01  3.62688095370601107370e-02  2.53069290744728503384e-06 10
1.87499999999999993061e-02  6.25000000000000000000e-01  5.43857538880906654644e-02  3.77666773360846308449e-06 10
2.50000000000000013878e-02  6.25000000000000000000e-01  7.24817431740299444876e-02  5.00950826973212137716e-06 10
3.12500000000000000000e-02  6.25000000000000000000e-01  9.05498007360271278676e-02  6.22904974051374793476e-06 10
3.74999999999999986122e-02  6.25000000000000000000e-01  1.08582960688423602047e-01  7.43512751674724192696e-06 10
4.37499999999999972244e-02  6.25000000000000000000e-01  1.26574270604262462125e-01  8.62757715083817267043e-06 10
5.00000000000000027756e-02  6.25000000000000000000e-01  1.44516794195607395368e-01  9.80623441432237896720e-06 10
5.62500000000000013878e-02  6.25000000000000000000e-01  1.62403613987640332850e-01  1.09709353344200621905e-05 10
6.25000000000000000000e-02  6.25000000000000000000e-01  1.80227833985499602543e-01  1.21215162373622398206e-05 10
6.87500000000000055511e-02  6.25000000000000000000e-01  1.97982582332839607275e-01  1.32578137893024639027e-05 10
7.49999999999999972244e-02  6.25000000000000000000e-01  2.15661013961080338941e-01  1.43796650407812531824e-05 10
8.12500000000000027756e-02  6.25000000000000000000e-01  2.33256313228324657638e-01  1.54869074770191961221e-05 10
8.74999999999999944489e-02  6.25000000000000000000e-01  2.50761696546929924168e-01  1.65793790682378094914e-05 10
9.37500000000000000000e-02  6.25000000000000000000e-01  2.68170414998714412569e-01  1.76569183280017583115e-05 10
1.00000000000000005551e-01  6.25000000000000000000e-01  2.85475756936801494668e-01  1.87193643678140730913e-05 10
1.06249999999999997224e-01  6.25000000000000000000e-01  3.02671050573080968604e-01  1.97665569653393546901e-05 10
1.12500000000000002776e-01  6.25000000000000000000e-01  3.19749666550301403500e-01  2.07983366351527365623e-05 10
1.18749999999999994449e-01  6.25000000000000000000e-01  3.36705020497813478642e-01  2.18145446903017514728e-05 10
1.25000000000000000000e-01  6.25000000000000000000e-01  3.53530575569940497260e-01  2.28150233332891083649e-05 10
1.31250000000000005551e-01  6.25000000000000000000e-01  3.70219844966046707224e-01  2.37996157268494101800e-05 10
1.37500000000000011102e-01  6.25000000000000000000e-01  3.86766394431289239897e-01  2.47681660878740217413e-05 10
1.43749999999999988898e-01  6.25000000000000000000e-01  4.03163844737121246364e-01  2.57205197716214861714e-05 10
1.49999999999999994449e-01  6.25000000000000000000e-01  4.19405874140564127739e-01  2.66565233737470208553e-05 10
1.56250000000000000000e-01  6.25000000000000000000e-01  4.35486220821325986652e-01  2.75760248227840953916e-05 10
1.62500000000000005551e-01  6.25000000000000000000e-01  4.51398685295803681061e-01  2.84788734875585092254e-05 10
1.68750000000000011102e-01  6.25000000000000000000e-01  4.67137132807050603489e-01  2.93649202869339376321e-05 10
1.74999999999999988898e-01  6.25000000000000000000e-01  4.82695495689793030447e-01  3.02340177960602751739e-05 10
1.81249999999999994449e-01  6.25000000000000000000e-01  4.98067775709567117648e-01  3.10860203668883450234e-05 10
1.87500000000000000000e-01  6.25000000000000000000e-01  5.13248046375093025517e-01  3.19207842436330935243e-05 10
1.93750000000000005551e-01  6.25000000000000000000e-01  5.28230455222987393959e-01  3.27381676812343869187e-05 10
2.00000000000000011102e-01  6.25000000000000000000e-01  5.43009226073923989553e-01  3.35380310748645271701e-05 10
2.06249999999999988898e-01  6.25000000000000000000e-01  5.57578661259384267268e-01  3.43202370906015019614e-05 10
2.12499999999999994449e-01  6.25000000000000000000e-01  5.71933143818146749737e-01  3.50846507889412961845e-05 10
2.18750000000000000000e-01  6.25000000000000000000e-01  5.86067139661661129502e-01  3.58311397475885584640e-05 10
2.25000000000000005551e-01  6.25000000000000000000e-01  5.99975199707444617481e-01  3.65595742130020440186e-05 10
2.31250000000000011102e-01  6.25000000000000000000e-01  6.13651961979728044483e-01  3.72698272294025301221e-05 10
2.37499999999999988898e-01  6.25000000000000000000e-01  6.27092153676524599604e-01  3.79617747624516610472e-05 10
2.43749999999999994449e-01  6.25000000000000000000e-01  6.40290593202289093355e-01  3.86352958536839707904e-05 10
2.50000000000000000000e-01  6.25000000000000000000e-01  6.53242192165439661267e-01  3.92902727485155978115e-05 10
2.56249999999999977796e-01  6.25000000000000000000e-01  6.65941957339940548977e-01  3.99265910315804717357e-05 10
2.62500000000000011102e-01  6.25000000000000000000e-01  6.78384992590177815508e-01  4.05441397782757562140e-05 10
2.68749999999999988898e-01  6.25000000000000000000e-01  6.90566500758436951912e-01  4.11428116730006010471e-05 10
2.75000000000000022204e-01  6.25000000000000000000e-01  7.02481785514184053909e-01  4.17225031662527001686e-05 10
2.81250000000000000000e-01  6.25000000000000000000e-01  7.14126253164502511339e-01  4.22831146007496272432e-05 10
2.87499999999999977796e-01  6.25000000000000000000e-01  7.25495414424954798704e-01  4.28245503462099108560e-05 10
2.93750000000000011102e-01  6.25000000000000000000e-01  7.36584886150171924690e-01  4.33467189502323435590e-05 10
2.99999999999999988898e-01  6.25000000000000000000e-01  7.47390393023570465125e-01  4.38495332423238792785e-05 10
3.06250000000000022204e-01  6.25000000000000000000e-01  7.57907769205430237314e-01  4.43329105062062467368e-05 10
3.12500000000000000000e-01  6.25000000000000000000e-01  7.68132959938844450676e-01  4.47967725718534381940e-05 10
3.18749999999999977796e-01  6.25000000000000000000e-01  7.78062023112778389233e-01  4.52410459734764458517e-05 10
3.25000000000000011102e-01  6.25000000000000000000e-01  7.87691130781743797939e-01  4.56656620615447650380e-05 10
3.31249999999999988898e-01  6.25000000000000000000e-01  7.97016570641438604206e-01  4.60705571356800902549e-05 10
3.37500000000000022204e-01  6.25000000000000000000e-01  8.06034747459816403037e-01  4.64556725636722234185e-05 10
3.43750000000000000000e-01  6.25000000000000000000e-01  8.14742184463020158169e-01  4.68209549009390713081e-05 10
3.49999999999999977796e-01  6.25000000000000000000e-01  8.23135524675643881487e-01  4.71663560118740221583e-05 10
3.56250000000000011102e-01  6.25000000000000000000e-01  8.31211532214812365282e-01  4.74918331865303855466e-05 10
3.62499999999999988898e-01  6.25000000000000000000e-01  8.38967093537579144957e-01  4.77973492530869847883e-05 10
3.68750000000000022204e-01  6.25000000000000000000e-01  8.46399218641163297860e-01  4.80828726870941025595e-05 10
3.75000000000000000000e-01  6.25000000000000000000e-01  8.53505042215557785390e-01  4.83483777159454675143e-05 10
3.81249999999999977796e-01  6.25000000000000000000e-01  8.60281824748064027908e-01  4.85938444276801106980e-05 10
3.87500000000000011102e-01  6.25000000000000000000e-01  8.66726953579327719090e-01  4.88192588765645751891e-05 10
3.93749999999999988898e-01  6.25000000000000000000e-01  8.72837943910484970189e-01  4.90246131712446242545e-05 10
4.00000000000000022204e-01  6.25000000000000000000e-01  8.78612439760998453764e-01  4.92099055809935848060e-05 10
4.06250000000000000000e-01  6.25000000000000000000e-01  8.84048214876845261934e-01  4.93751406217546318089e-05 10
4.12499999999999977796e-01  6.25000000000000000000e-01  8.89143173588685886699e-01  4.95203291497325892578e-05 10
4.18750000000000011102e-01  6.25000000000000000000e-01  8.93895351619694467082e-01  4.96454884476582591901e-05 10
4.24999999999999988898e-01  6.25000000000000000000e-01  8.98302916842740661885e-01  4.97506423018378995948e-05 10
4.31250000000000022204e-01  6.25000000000000000000e-01  9.02364169986607178586e-01  4.98358210955229807837e-05 10
4.37500000000000000000e-01  6.25000000000000000000e-01  9.06077545291020358675e-01  4.99010618674189387889e-05 10
4.43749999999999977796e-01  6.25000000000000000000e-01  9.09441611110172853927e-01  4.99464084066092439684e-05 10
4.50000000000000011102e-01  6.25000000000000000000e-01  9.12455070464578854583e-01  4.99719113056240615833e-05 10
4.56249999999999988898e-01  6.25000000000000000000e-01  9.15116761540984646750e-01  4.99776280411534656878e-05 10
4.62500000000000022204e-01  6.25000000000000000000e-01  9.17425658140187949563e-01  4.99636230342215270639e-05 10
4.68750000000000000000e-01  6.25000000000000000000e-01  9.19380870072577183194e-01  4.99299677046982637307e-05 10
4.74999999999999977796e-01  6.25000000000000000000e-01  9.20981643501218916192e-01  4.98767405417988030081e-05 10
4.81250000000000011102e-01  6.25000000000000000000e-01  9.22227361232399123203e-01  4.98040271506017262482e-05 10
4.87499999999999988898e-01  6.25000000000000000000e-01  9.23117542953471703626e-01  4.97119203110019114433e-05 10
4.93750000000000022204e-01  6.25000000000000000000e-01  9.23651845417946204542e-01  4.96005200234517218405e-05 10
5.00000000000000000000e-01  6.25000000000000000000e-01  9.23830062577729260731e-01  4.94699335574777521174e-05 10
5.06249999999999977796e-01  6.25000000000000000000e-01  9.23652125662480227852e-01  4.93202754894284112197e-05 10
5.12499999999999955591e-01  6.25000000000000000000e-01  9.23118103206031159758e-01  4.91516677515457800496e-05 10
5.18750000000000044409e-01  6.25000000000000000000e-01  9.22228201019886340006e-01  4.89642396633849230625e-05 10
5.25000000000000022204e-01  6.25000000000000000000e-01  9.20982762113779829249e-01  4.87581279808857459557e-05 10
5.31250000000000000000e-01  6.25000000000000000000e-01  9.19382266563375627477e-01  4.85334769063650028897e-05 10
5.37499999999999977796e-01  6.25000000000000000000e-01  9.17427331325088690761e-01  4.82904381334803289860e-05 10
5.43749999999999955591e-01  6.25000000000000000000e-01  9.15118709998158141872e-01  4.80291708676583439797e-05 10
5.50000000000000044409e-01  6.25000000000000000000e-01  9.12457292534022634811e-01  4.77498418617328113100e-05 10
5.56250000000000022204e-01  6.25000000000000000000e-01  9.09444104893154303682e-01  4.74526254251594892253e-05 10
5.62500000000000000000e-01  6.25000000000000000000e-01  9.06080308649446108937e-01  4.71377034416686768736e-05 10
5.68749999999999977796e-01  6.25000000000000000000e-01  9.02367200542297687171e-01  4.68052654050143956965e-05 10
5.74999999999999955591e-01  6.25000000000000000000e-01  8.98306211976638291361e-01  4.64555084043194455035e-05 10
5.81250000000000044409e-01  6.25000000000000000000e-01  8.93898908470975528395e-01  4.60886371665969463152e-05 10
5.87500000000000022204e-01  6.25000000000000000000e-01  8.89146989053792746738e-01  4.57048640428725505558e-05 10
5.93750000000000000000e-01  6.25000000000000000000e-01  8.84052285608436627662e-01  4.53044090303889035454e-05 10
5.99999999999999977796e-01  6.25000000000000000000e-01  8.78616762166820719493e-01  4.48874997588388779945e-05 10
6.06249999999999955591e-01  6.25000000000000000000e-01  8.72842514152145754203e-01  4.44543715105716330527e-05 10
6.12500000000000044409e-01  6.25000000000000000000e-01  8.66731767570984024118e-01  4.40052672201485250980e-05 10
6.18750000000000022204e-01  6.25000000000000000000e-01  8.60286878155028689186e-01  4.35404374631298551890e-05 10
6.25000000000000000000e-01  6.25000000000000000000e-01  8.53510330452820098479e-01  4.30601404536323784100e-05 10
6.31249999999999977796e-01  6.25000000000000000000e-01  8.46404736871817164889e-01  4.25646420332270736253e-05 10
6.37499999999999955591e-01  6.25000000000000000000e-01  8.38972836671156185773e-01  4.20542156762682139970e-05 10
6.43750000000000044409e-01  6.25000000000000000000e-01  8.31217494905540421612e-01  4.15291424583630330858e-05 10
6.50000000000000022204e-01  6.25000000000000000000e-01  8.23141701320577068302e-01  4.09897110787982299485e-05 10
6.56250000000000000000e-01  6.25000000000000000000e-01  8.14748569200131500523e-01  4.04362177897077401667e-05 10
6.62499999999999977796e-01  6.25000000000000000000e-01  8.06041334165958023306e-01  3.98689664222739992283e-05 10
6.68749999999999955591e-01  6.25000000000000000000e-01  7.97023352930218642598e-01  3.92882683557527201401e-05 10
6.75000000000000044409e-01  6.25000000000000000000e-01  7.87698102001327837840e-01  3.86944424776158868440e-05 10
6.81250000000000022204e-01  6.25000000000000000000e-01  7.78069176343554103070e-01  3.80878151978736312344e-05 10
6.87500000000000000000e-01  6.25000000000000000000e-01  7.68140287991053938299e-01  3.74687203625878595403e-05 10
6.93749999999999977796e-01  6.25000000000000000000e-01  7.57915264616652706309e-01  3.68374992837372516874e-05 10
6.99999999999999955591e-01  6.25000000000000000000e-01  7.47398048056157282559e-01  3.61945006555064452414e-05 10
7.06250000000000044409e-01  6.25000000000000000000e-01  7.36592692788557656947e-01  3.55400805645000872346e-05 10
7.12500000000000022204e-01  6.25000000000000000000e-01  7.25503364372883208233e-01  3.48746024178003821703e-05 10
7.18750000000000000000e-01  6.25000000000000000000e-01  7.14134337842188826606e-01  3.41984369145453825922e-05 10
7.24999999999999977796e-01  6.25000000000000000000e-01  7.02489996055343457471e-01  3.35119620068491386178e-05 10
7.31249999999999955591e-01  6.25000000000000000000e-01  6.90574828007275098862e-01  3.28155628351867179049e-05 10
7.37500000000000044409e-01  6.25000000000000000000e-01  6.78393427098251566854e-01  3.21096317044133883201e-05 10
7.43750000000000022204e-01  6.25000000000000000000e-01  6.65950489362956532524e-01  3.13945680158189688314e-05 10
7.50000000000000000000e-01  6.25000000000000000000e-01  6.53250811659990660019e-01  3.06707781976278681668e-05 10
7.56249999999999977796e-01  6.25000000000000000000e-01  6.40299289822464756661e-01  2.99386756780206653161e-05 10
7.62499999999999955591e-01  6.25000000000000000000e-01  6.27100916770508609588e-01  2.91986807787747437715e-05 10
7.68750000000000044409e-01  6.25000000000000000000e-01  6.13660780586271825676e-01  2.84512206855103144676e-05 10
7.75000000000000022204e-01  6.25000000000000000000e-01  5.99984062552294972193e-01  2.76967293627583543980e-05 10
7.81250000000000000000e-01  6.25000000000000000000e-01  5.86076035153940910760e-01  2.69356474678072999041e-05 10
7.87499999999999977796e-01  6.25000000000000000000e-01  5.71942060046666034268e-01  2.61684222698788104822e-05 10
7.93749999999999955591e-01  6.25000000000000000000e-01  5.57587585988894685052e-01  2.53955075802947405350e-05 10
8.00000000000000044409e-01  6.25000000000000000000e-01  5.43018146741343188388e-01  2.46173636557767139266e-05 10
8.06250000000000022204e-01  6.25000000000000000000e-01  5.28239358933568214916e-01  2.38344571004134309078e-05 10
8.12500000000000000000e-01  6.25000000000000000000e-01  5.13256919898576580152e-01  2.30472607600784584747e-05 10
8.18749999999999977796e-01  6.25000000000000000000e-01  4.98076605476294953512e-01  2.22562536392190146728e-05 10
8.24999999999999955591e-01  6.25000000000000000000e-01  4.82704267786844221089e-01  2.14619207449806559396e-05 10
8.31250000000000044409e-01  6.25000000000000000000e-01  4.67145832974317998243e-01  2.06647530195391837537e-05 10
8.37500000000000022204e-01  6.25000000000000000000e-01  4.51407298922092470317e-01  1.98652471987137424492e-05 10
8.43750000000000000000e-01  6.25000000000000000000e-01  4.35494732940485018702e-01  1.90639056639740900323e-05 10
8.49999999999999977796e-01  6.25000000000000000000e-01  4.19414269427609176510e-01  1.82612363288092716118e-05 10
8.56249999999999955591e-01  6.25000000000000000000e-01  4.03172107504402854605e-01  1.74577524904018233087e-05 10
8.62500000000000044409e-01  6.25000000000000000000e-01  3.86774508624687263225e-01  1.66539726896841600023e-05 10
8.68750000000000022204e-01  6.25000000000000000000e-01  3.70227794161227086178e-01  1.58504205466925007784e-05 10
8.75000000000000000000e-01  6.25000000000000000000e-01  3.53538342968673480193e-01  1.50476246003616864755e-05 10
8.81249999999999977796e-01  6.25000000000000000000e-01  3.36712588924377553834e-01  1.42461181262265590419e-05 10
8.87499999999999955591e-01  6.25000000000000000000e-01  3.19757018447949625806e-01  1.34464389872079870258e-05 10
8.93750000000000044409e-01  6.25000000000000000000e-01  3.02678168000597103138e-01  1.26491294490382877314e-05 10
9.00000000000000022204e-01  6.25000000000000000000e-01  2.85482621565186445167e-01  1.18547359829745957427e-05 10
9.06250000000000000000e-01  6.25000000000000000000e-01  2.68177008107986170060e-01  1.10638090562997781774e-05 10
9.12499999999999977796e-01  6.25000000000000000000e-01  2.50767999023041643358e-01  1.02769029568516856443e-05 10
9.18749999999999955591e-01  6.25000000000000000000e-01  2.33262305560206550936e-01  9.49457559534794270917e-06 10
9.25000000000000044409e-01  6.25000000000000000000e-01  2.15666676237899562762e-01  8.71738822166845395145e-06 10
9.31250000000000022204e-01  6.25000000000000000000e-01  1.97987894241297368580e-01  7.94590533151340316920e-06 10
9.37500000000000000000e-01  6.25000000000000000000e-01  1.80232774807441320508e-01  7.18069429597734121273e-06 10
9.43749999999999977796e-01  6.25000000000000000000e-01  1.62408162597736133170e-01  6.42232523881403061239e-06 10
9.49999999999999955591e-01  6.25000000000000000000e-01  1.44520929059258507188e-01  5.67137076332158152070e-06 10
9.56250000000000044409e-01  6.25000000000000000000e-01  1.26577969775691773213e-01  4.92840572155484046846e-06 10
9.62500000000000022204e-01  6.25000000000000000000e-01  1.08586201808976171024e-01  4.19400696408112061420e-06 10
9.68750000000000000000e-01  6.25000000000000000000e-01  9.05525610326759211599e-02  3.46875309192862246732e-06 10
9.74999999999999977796e-01  6.25000000000000000000e-01  7.24839994580643437461e-02  2.75322423545776295839e-06 10
9.81249999999999955591e-01  6.25000000000000000000e-01  5.43874825540664255663e-02  2.04800175827163366549e-06 10
9.87500000000000044409e-01  6.25000000000000000000e-01  3.62699865619222835966e-02  1.35366804517728089863e-06 10
9.93750000000000022204e-01  6.25000000000000000000e-01  1.81384958057502522488e-02  6.70806245613164708885e-07 10
1.00000000000000000000e+00  6.25000000000000000000e-01  0.00000000000000000000e+00  1.13142611228770026067e-16 10
0.00000000000000000000e+00  6.31249999999999977796e-01  0.00000000000000000000e+00  0.00000000000000000000e+00 10
6.25000000000000034694e-03  6.31249999999999977796e-01  1.79868753699110560385e-02  1.27721625810262029432e-06 10
1.25000000000000006939e-02  6.31249999999999977796e-01  3.59668293514396608668e-02  2.54104565654972303079e-06 10
1.87499999999999993061e-02  6.31249999999999977796e-01  5.39329299935433770230e-02  3.79133748353022159705e-06 10
2.50000000000000013878e-02  6.31249999999999977796e-01  7.18782506910713298032e-02  5.02794108074577916767e-06 10
3.12500000000000000000e-02  6.31249999999999977796e-01  8.97958728551357804326e-02  6.25070586798837091180e-06 10
3.74999999999999986122e-02  6.31249999999999977796e-01  1.07678888580391513008e-01  7.45948136961216423657e-06 10
4.37499999999999972244e-02  6.31249999999999977796e-01  1.25520403308196804026e-01  8.65411724049192088160e-06 10
5.00000000000000027756e-02  6.31249999999999977796e-01  1.43313538484631575187e-01  9.83446328955972504104e-06 10
5.62500000000000013878e-02  6.31249999999999977796e-01  1.61051434212333671736e-01  1.10003695147353752759e-05 10
6.25000000000000000000e-02  6.31249999999999977796e-01  1.78727251895152955408e-01  1.21516861278092580534e-05 10
6.87500000000000055511e-02  6.31249999999999977796e-01  1.96334176874582239103e-01  1.32882635902331625033e-05 10
7.49999999999999972244e-02  6.31249999999999977796e-01  2.13865421056956550583e-01  1.44099526518948195530e-05 10
8.12500000000000027756e-02  6.31249999999999977796e-01  2.31314225530414724341e-01  1.55166043868393277450e-05 10
8.74999999999999944489e-02  6.31249999999999977796e-01  2.48673863170596781691e-01  1.66080702419801884417e-05 10
9.37500000000000000000e-02  6.31249999999999977796e-01  2.65937641234091581843e-01  1.76842020814249600846e-05 10
1.00000000000000005551e-01  6.31249999999999977796e-01  2.83098903938618418064e-01  1.87448522421251873027e-05 10
1.06249999999999997224e-01  6.31249999999999977796e-01  3.00151035028957513529e-01  1.97898735908585976517e-05 10
1.12500000000000002776e-01  6.31249999999999977796e-01  3.17087460327638182012e-01  2.08191195852358568175e-05 10
1.18749999999999994449e-01  6.31249999999999977796e-01  3.33901650269396443882e-01  2.18324443430062409277e-05 10
1.25000000000000000000e-01  6.31249999999999977796e-01  3.50587122418432706183e-01  2.28297027125567986161e-05 10
1.31250000000000005551e-01  6.31249999999999977796e-01  3.67137443967490317842e-01  2.38107503524598307365e-05 10
1.37500000000000011102e-01  6.31249999999999977796e-01  3.83546234217801373934e-01  2.47754438112424146823e-05 10
1.43749999999999988898e-01  6.31249999999999977796e-01  3.99807167038930488800e-01  2.57236406192573596741e-05 10
1.49999999999999994449e-01  6.31249999999999977796e-01  4.15913973307588447081e-01  2.66551993745589577145e-05 10
1.56250000000000000000e-01  6.31249999999999977796e-01  4.31860443324445397728e-01  2.75699798495399051035e-05 10
1.62500000000000005551e-01  6.31249999999999977796e-01  4.47640429208050971699e-01  2.84678430829132800284e-05 10
1.68750000000000011102e-01  6.31249999999999977796e-01  4.63247847264897594233e-01  2.93486514949536925201e-05 10
1.74999999999999988898e-01  6.31249999999999977796e-01  4.78676680334753024137e-01  3.02122689877504235767e-05 10
1.81249999999999994449e-01  6.31249999999999977796e-01  4.93920980110314267186e-01  3.10585610737712514151e-05 10
1.87500000000000000000e-01  6.31249999999999977796e-01  5.08974869430338094922e-01  3.18873949823883506838e-05 10
1.93750000000000005551e-01  6.31249999999999977796e-01  5.23832544545325684560e-01  3.26986397846118492794e-05 10
2.00000000000000011102e-01  6.31249999999999977796e-01  5.38488277354899791405e-01  3.34921665214871211447e-05 10
2.06249999999999988898e-01  6.31249999999999977796e-01  5.52936417616020081667e-01  3.42678483312708337394e-05 10
2.12499999999999994449e-01  6.31249999999999977796e-01  5.67171395121179422461e-01  3.50255605771065958720e-05 10
2.18750000000000000000e-01  6.31249999999999977796e-01  5.81187721845740634663e-01  3.57651809804737652598e-05 10
2.25000000000000005551e-01  6.31249999999999977796e-01  5.94979994063581263397e-01  3.64865897607424827243e-05 10
2.31250000000000011102e-01  6.31249999999999977796e-01  6.08542894430251335436e-01  3.71896697630713646276e-05 10
2.37499999999999988898e-01  6.31249999999999977796e-01  6.21871194032810992169e-01  3.78743066037356967968e-05 10
2.43749999999999994449e-01  6.31249999999999977796e-01  6.34959754405575949043e-01  3.85403888139013162117e-05 10
2.50000000000000000000e-01  6.31249999999999977796e-01  6.47803529511015385722e-01  3.91878079611940322025e-05 10
2.56249999999999977796e-01  6.31249999999999977796e-01  6.60397567684980257852e-01  3.98164588066851621306e-05 10
2.62500000000000011102e-01  6.31249999999999977796e-01  6.72737013545566697736e-01  4.04262394428922533507e-05 10
2.68749999999999988898e-01  6.31249999999999977796e-01  6.84817109864862882951e-01  4.10170514278940245845e-05 10
2.75000000000000022204e-01  6.31249999999999977796e-01  6.96633199402846625681e-01  4.15887999289932253077e-05 10
2.81250000000000000000e-01  6.31249999999999977796e-01  7.08180726702729135269e-01  4.21413938679338073712e-05 10
2.87499999999999977796e-01  6.31249999999999977796e-01  7.19455239847079597304e-01  4.26747460491316843445e-05 10
2.93750000000000011102e-01  6.31249999999999977796e-01  7.30452392174006481795e-01  4.31887733093327952361e-05 10
2.99999999999999988898e-01  6.31249999999999977796e-01  7.41167943952786401063e-01  4.36833966421801278557e-05 10
3.06250000000000022204e-01  6.31249999999999977796e-01  7.51597764018241853989e-01  4.41585413479828048366e-05 10
3.12500000000000000000e-01  6.31249999999999977796e-01  7.61737831363297979159e-01  4.46141371479580328696e-05 10
3.18749999999999977796e-01  6.31249999999999977796e-01  7.71584236689031199852e-01  4.50501183386631254280e-05 10
3.25000000000000011102e-01  6.31249999999999977796e-01  7.81133183911689399359e-01  4.54664239053492735820e-05 10
3.31249999999999988898e-01  6.31249999999999977796e-01  7.90380991626041251585e-01  4.58629976584079557256e-05 10
3.37500000000000022204e-01  6.31249999999999977796e-01  7.99324094524529682460e-01  4.62397883544962695623e-05 10
3.43750000000000000000e-01  6.31249999999999977796e-01  8.07959044771661138995e-01  4.65967498197716878394e-05 10
3.49999999999999977796e-01  6.31249999999999977796e-01  8.16282513333106196640e-01  4.69338410744590817103e-05 10
3.56250000000000011102e-01  6.31249999999999977796e-01  8.24291291259001024372e-01  4.72510264524217404869e-05 10
3.62499999999999988898e-01  6.31249999999999977796e-01  8.31982290920965428249e-01  4.75482757078538043061e-05 10
3.68750000000000022204e-01  6.31249999999999977796e-01  8.39352547202332321952e-01  4.78255641386260421655e-05 10
3.75000000000000000000e-01  6.31249999999999977796e-01  8.46399218641163630927e-01  4.80828726867610356521e-05 10
3.81249999999999977796e-01  6.31249999999999977796e-01  8.53119588525584227057e-01  4.83201880510097936394e-05 10
3.87500000000000011102e-01  6.31249999999999977796e-01  8.59511065941018781444e-01  4.85375027986512108669e-05 10
3.93749999999999988898e-01  6.31249999999999977796e-01  8.65571186768963718450e-01  4.87348154429856350589e-05 10
4.00000000000000022204e-01  6.31249999999999977796e-01  8.71297614636830530799e-01  4.89121305663475780534e-05 10
4.06250000000000000000e-01  6.31249999999999977796e-01  8.76688141818575239483e-01  4.90694589034834649510e-05 10
4.12499999999999977796e-01  6.31249999999999977796e-01  8.81740690085725309366e-01  4.92068174318127660172e-05 10
4.18750000000000011102e-01  6.31249999999999977796e-01  8.86453311508472174829e-01  4.93242294691276228491e-05 10
4.24999999999999988898e-01  6.31249999999999977796e-01  8.90824189206552374820e-01  4.94217247469785903036e-05 10
4.31250000000000022204e-01  6.31249999999999977796e-01  8.94851638049585451640e-01  4.94993395036003036580e-05 10
4.37500000000000000000e-01  6.31249999999999977796e-01  8.98534105306642016942e-01  4.95571165510799716003e-05 10
4.43749999999999977796e-01  6.31249999999999977796e-01  9.01870171244745777450e-01  4.95951053651744189210e-05 10
4.50000000000000011102e-01  6.31249999999999977796e-01  9.04858549676121226568e-01  4.96133621520344902933e-05 10
4.56249999999999988898e-01  6.31249999999999977796e-01  9.07498088453951745613e-01  4.96119499180380785219e-05 10
4.62500000000000022204e-01  6.31249999999999977796e-01  9.09787769916466926290e-01  4.95909385335169261566e-05 10
4.68750000000000000000e-01  6.31249999999999977796e-01  9.11726711279173929192e-01  4.95504048013684084140e-05 10
4.74999999999999977796e-01  6.31249999999999977796e-01  9.13314164975103537358e-01  4.94904325130107736186e-05 10
4.81250000000000011102e-01  6.31249999999999977796e-01  9.14549518942918249209e-01  4.94111125078910973230e-05 10
4.87499999999999988898e-01  6.31249999999999977796e-01  9.15432296862780159330e-01  4.93125427323271026125e-05 10
4.93750000000000022204e-01  6.31249999999999977796e-01  9.15962158339902465798e-01  4.91948282815846127392e-05 10
5.00000000000000000000e-01  6.31249999999999977796e-01  9.16138899035677134464e-01  4.90580814588303937285e-05 10
5.06249999999999977796e-01  6.31249999999999977796e-01  9.15962450746374501342e-01  4.89024218095490681435e-05 10
5.12499999999999955591e-01  6.31249999999999977796e-01  9.15432881429333988876e-01  4.87279761784975562477e-05 10
5.18750000000000044409e-01  6.31249999999999977796e-01  9.14550395176691677257e-01  4.85348787344630494545e-05 10
5.25000000000000022204e-01  6.31249999999999977796e-01  9.13315332136598323487e-01  4.83232710182246449904e-05 10
5.31250000000000000000e-01  6.31249999999999977796e-01  9.11728168382002435166e-01  4.80933019729734567704e-05 10
5.37499999999999977796e-01  6.31249999999999977796e-01  9.09789515727025044356e-01  4.78451279753988600874e-05 10
5.43749999999999955591e-01  6.31249999999999977796e-01  9.07500121491003342022e-01  4.75789128664416693937e-05 10
5.50000000000000044409e-01  6.31249999999999977796e-01  9.04860868210289770452e-01  4.72948279833795837135e-05 10
5.56250000000000022204e-01  6.31249999999999977796e-01  9.01872773297942242898e-01  4.69930521687089708394e-05 10
5.62500000000000000000e-01  6.31249999999999977796e-01  8.98536988651386314686e-01  4.66737718067822271450e-05 10
5.68749999999999977796e-01  6.31249999999999977796e-01  8.94854800208249812066e-01  4.63371808392398776277e-05 10
5.74999999999999955591e-01  6.31249999999999977796e-01  8.90827627450524794916e-01  4.59834807746695162223e-05 10
5.81250000000000044409e-01  6.31249999999999977796e-01  8.86457022857229715029e-01  4.56128807115874224110e-05 10
5.87500000000000022204e-01  6.31249999999999977796e-01  8.81744671305813909612e-01  4.52255973432125202294e-05 10
5.93750000000000000000e-01  6.31249999999999977796e-01  8.76692389422502382779e-01  4.48218549763401696850e-05 10
5.99999999999999977796e-01  6.31249999999999977796e-01  8.71302124881871642437e-01  4.44018855253469624245e-05 10
6.06249999999999955591e-01  6.31249999999999977796e-01  8.65575955655874973438e-01  4.39659285318416692689e-05 10
6.12500000000000044409e-01  6.31249999999999977796e-01  8.59516089212658207508e-01  4.35142311591141250915e-05 10
6.18750000000000022204e-01  6.31249999999999977796e-01  8.53124861665447320469e-01  4.30470481879163813232e-05 10
6.25000000000000000000e-01  6.31249999999999977796e-01  8.46404736871815499555e-01  4.25646420348924081622e-05 10