Titile = 'Poisson'  
VARIABLES = X, Y, U, Error, Rank 
zone N= 3751, E = 7200
DATAPACKING=POINT, ZONETYPE=FETRIANGLE
0.00000000000000000000e+00  5.00000000000000000000e-01  0.00000000000000000000e+00  0.00000000000000000000e+00 2
8.33333333333333321769e-03  5.00000000000000000000e-01  2.61744528983764018770e-02  2.49540949674720291540e-06 2
1.66666666666666664354e-02  5.00000000000000000000e-01  5.23309671341787505106e-02  4.98910876507718814565e-06 2
2.50000000000000013878e-02  5.00000000000000000000e-01  7.84516163390984316850e-02  7.47938874651188356779e-06 2
3.33333333333333328707e-02  5.00000000000000000000e-01  1.04518498724924135956e-01  9.96454272932101314808e-06 2
4.16666666666666643537e-02  5.00000000000000000000e-01  1.30513749352540009419e-01  1.24428675115639819637e-05 2
5.00000000000000027756e-02  5.00000000000000000000e-01  1.56419552375654524745e-01  1.49126645763442144954e-05 2
5.83333333333333342585e-02  5.00000000000000000000e-01  1.82218153250907649587e-01  1.73722412398213954532e-05 2
6.66666666666666657415e-02  5.00000000000000000000e-01  2.07891870905910242096e-01  1.98199118490727244080e-05 2
7.49999999999999972244e-02  5.00000000000000000000e-01  2.33423109857040511628e-01  2.22539988648795539206e-05 2
8.33333333333333287074e-02  5.00000000000000000000e-01  2.58794372268411121407e-01  2.46728341096180692205e-05 2
9.16666666666666601904e-02  5.00000000000000000000e-01  2.83988269944093596475e-01  2.70747598289933222304e-05 2
1.00000000000000005551e-01  5.00000000000000000000e-01  3.08987536245094673859e-01  2.94581298527218926608e-05 2
1.08333333333333337034e-01  5.00000000000000000000e-01  3.33775037923014383789e-01  3.18213107565745723093e-05 2
1.16666666666666668517e-01  5.00000000000000000000e-01  3.58333786862384262584e-01  3.41626829160057710055e-05 2
1.25000000000000000000e-01  5.00000000000000000000e-01  3.82646951723409289858e-01  3.64806416804919209085e-05 2
1.33333333333333331483e-01  5.00000000000000000000e-01  4.06697869477380902214e-01  3.87735984192505434009e-05 2
1.41666666666666662966e-01  5.00000000000000000000e-01  4.30470056826575520059e-01  4.10399817195594707187e-05 2
1.49999999999999994449e-01  5.00000000000000000000e-01  4.53947221501340592020e-01  4.32782382061569492748e-05 2
1.58333333333333325932e-01  5.00000000000000000000e-01  4.77113273425620820767e-01  4.54868339875846849907e-05 2
1.66666666666666657415e-01  5.00000000000000000000e-01  4.99952335744642706317e-01  4.76642553572381721949e-05 2
1.74999999999999988898e-01  5.00000000000000000000e-01  5.22448755705946066286e-01  4.98090100027326343479e-05 2
1.83333333333333320381e-01  5.00000000000000000000e-01  5.44587115386942155482e-01  5.19196280848177593725e-05 2
1.91666666666666679619e-01  5.00000000000000000000e-01  5.66352242261822902414e-01  5.39946630099263913394e-05 2
2.00000000000000011102e-01  5.00000000000000000000e-01  5.87729219599746222080e-01  5.60326927269150232291e-05 2
2.08333333333333342585e-01  5.00000000000000000000e-01  6.08703396688321074492e-01  5.80323203995813940992e-05 2
2.16666666666666674068e-01  5.00000000000000000000e-01  6.29260398874232684818e-01  5.99921756048171772591e-05 2
2.25000000000000005551e-01  5.00000000000000000000e-01  6.49386137414950104230e-01  6.19109152335539647538e-05 2
2.33333333333333337034e-01  5.00000000000000000000e-01  6.69066819134688683945e-01  6.37872241695536246198e-05 2
2.41666666666666668517e-01  5.00000000000000000000e-01  6.88288955877246810822e-01  6.56198165071009142935e-05 2
2.50000000000000000000e-01  5.00000000000000000000e-01  7.07039373750130373253e-01  6.74074364170884621217e-05 2
2.58333333333333359239e-01  5.00000000000000000000e-01  7.25305222153829864951e-01  6.91488584577681919541e-05 2
2.66666666666666662966e-01  5.00000000000000000000e-01  7.43073982587874937167e-01  7.08428895191959284716e-05 2
2.75000000000000022204e-01  5.00000000000000000000e-01  7.60333477231885268566e-01  7.24883681457733075604e-05 2
2.83333333333333325932e-01  5.00000000000000000000e-01  7.77071877289834955782e-01  7.40841671358349884713e-05 2
2.91666666666666685170e-01  5.00000000000000000000e-01  7.93277711098765880848e-01  7.56291924692842343347e-05 2
2.99999999999999988898e-01  5.00000000000000000000e-01  8.08939871989856618129e-01  7.71223850908331343135e-05 2
3.08333333333333348136e-01  5.00000000000000000000e-01  8.24047625899730906696e-01  7.85627222847917749959e-05 2
3.16666666666666651864e-01  5.00000000000000000000e-01  8.38590618729293191258e-01  7.99492161307480131427e-05 2
3.25000000000000011102e-01  5.00000000000000000000e-01  8.52558883437009806805e-01  8.12809170823713955656e-05 2
3.33333333333333314830e-01  5.00000000000000000000e-01  8.65942846872424620841e-01  8.25569120139757472998e-05 2
3.41666666666666674068e-01  5.00000000000000000000e-01  8.78733336335545622831e-01  8.37763264197599610839e-05 2
3.49999999999999977796e-01  5.00000000000000000000e-01  8.90921585863307718967e-01  8.49383250600688199938e-05 2
3.58333333333333337034e-01  5.00000000000000000000e-01  9.02499242238935406313e-01  8.60421109251108262583e-05 2
3.66666666666666640761e-01  5.00000000000000000000e-01  9.13458370714748446595e-01  8.70869278524200041147e-05 2
3.75000000000000000000e-01  5.00000000000000000000e-01  9.23791460451324430991e-01  8.80720599623074917872e-05 2
3.83333333333333359239e-01  5.00000000000000000000e-01  9.33491429665624705692e-01  8.89968315770373052942e-05 2
3.91666666666666662966e-01  5.00000000000000000000e-01  9.42551630482602154082e-01  8.98606095762755074929e-05 2
4.00000000000000022204e-01  5.00000000000000000000e-01  9.50965853493858426226e-01  9.06628012951049555568e-05 2
4.08333333333333325932e-01  5.00000000000000000000e-01  9.58728332010905237581e-01  9.14028572878144984770e-05 2
4.16666666666666685170e-01  5.00000000000000000000e-01  9.65833746018520233889e-01  9.20802705480783245662e-05 2
4.24999999999999988898e-01  5.00000000000000000000e-01  9.72277225821402968364e-01  9.26945762735886802375e-05 2
4.33333333333333348136e-01  5.00000000000000000000e-01  9.78054355379655793179e-01  9.32453541498956539613e-05 2
4.41666666666666651864e-01  5.00000000000000000000e-01  9.83161175338023496373e-01  9.37322259310091610018e-05 2
4.50000000000000011102e-01  5.00000000000000000000e-01  9.87594185736645369111e-01  9.41548584924012388342e-05 2
4.58333333333333314830e-01  5.00000000000000000000e-01  9.91350348411670134752e-01  9.45129621402474029424e-05 2
4.66666666666666674068e-01  5.00000000000000000000e-01  9.94427089077137726925e-01  9.48062911355629367449e-05 2
4.74999999999999977796e-01  5.00000000000000000000e-01  9.96822299088396923672e-01  9.50346447310401742925e-05 2
4.83333333333333337034e-01  5.00000000000000000000e-01  9.98534336888344142835e-01  9.51978662296903976880e-05 2
4.91666666666666640761e-01  5.00000000000000000000e-01  9.99562029131595863873e-01  9.52958439613960095471e-05 2
5.00000000000000000000e-01  5.00000000000000000000e-01  9.99904671489349028413e-01  9.53285106509715873813e-05 2
5.08333333333333303727e-01  5.00000000000000000000e-01  9.99562029131356721834e-01  9.52958442005380490514e-05 2
5.16666666666666718477e-01  5.00000000000000000000e-01  9.98534336888444506997e-01  9.51978661293262362619e-05 2
5.25000000000000022204e-01  5.00000000000000000000e-01  9.96822299088293561908e-01  9.50346448344019378851e-05 2
5.33333333333333325932e-01  5.00000000000000000000e-01  9.94427089077149939378e-01  9.48062911234615057765e-05 2
5.41666666666666629659e-01  5.00000000000000000000e-01  9.91350348411767834378e-01  9.45129620426587990778e-05 2
5.50000000000000044409e-01  5.00000000000000000000e-01  9.87594185736503593631e-01  9.41548586340656967764e-05 2
5.58333333333333348136e-01  5.00000000000000000000e-01  9.83161175338091219977e-01  9.37322258633965788022e-05 2
5.66666666666666651864e-01  5.00000000000000000000e-01  9.78054355379774920110e-01  9.32453540307687234190e-05 2
5.74999999999999955591e-01  5.00000000000000000000e-01  9.72277225821321477994e-01  9.26945763551900725474e-05 2
5.83333333333333370341e-01  5.00000000000000000000e-01  9.65833746018615935114e-01  9.20802704523770998435e-05 2
5.91666666666666674068e-01  5.00000000000000000000e-01  9.58728332010742589908e-01  9.14028574504621715846e-05 2
5.99999999999999977796e-01  5.00000000000000000000e-01  9.50965853493954682563e-01  9.06628011989596416242e-05 2
6.08333333333333281523e-01  5.00000000000000000000e-01  9.42551630482688418411e-01  8.98606094900111784796e-05 2
6.16666666666666696273e-01  5.00000000000000000000e-01  9.33491429665512351121e-01  8.89968316893918753863e-05 2
6.25000000000000000000e-01  5.00000000000000000000e-01  9.23791460451390045172e-01  8.80720598966933110319e-05 2
6.33333333333333303727e-01  5.00000000000000000000e-01  9.13458370714559264592e-01  8.70869280417130298133e-05 2
6.41666666666666718477e-01  5.00000000000000000000e-01  9.02499242238991694620e-01  8.60421108688225189098e-05 2
6.50000000000000022204e-01  5.00000000000000000000e-01  8.90921585863358789226e-01  8.49383250091095831635e-05 2
6.58333333333333325932e-01  5.00000000000000000000e-01  8.78733336335412507090e-01  8.37763265528757017364e-05 2
6.66666666666666629659e-01  5.00000000000000000000e-01  8.65942846872453819707e-01  8.25569119848879040546e-05 2
6.75000000000000044409e-01  5.00000000000000000000e-01  8.52558883437055770038e-01  8.12809170365191846486e-05 2
6.83333333333333348136e-01  5.00000000000000000000e-01  8.38590618729267434084e-01  7.99492161565051873140e-05 2
6.91666666666666651864e-01  5.00000000000000000000e-01  8.24047625899777091973e-01  7.85627222387175194740e-05 2
6.99999999999999955591e-01  5.00000000000000000000e-01  8.08939871989708181310e-01  7.71223852392699527059e-05 2
7.08333333333333370341e-01  5.00000000000000000000e-01  7.93277711098869575679e-01  7.56291923655894038347e-05 2
7.16666666666666674068e-01  5.00000000000000000000e-01  7.77071877289755574836e-01  7.40841672154379793369e-05 2
7.24999999999999977796e-01  5.00000000000000000000e-01  7.60333477231938226204e-01  7.24883680928156692858e-05 2
7.33333333333333281523e-01  5.00000000000000000000e-01  7.43073982587942660771e-01  7.08428894518053908769e-05 2
7.41666666666666696273e-01  5.00000000000000000000e-01  7.25305222153847184430e-01  6.91488584403376904675e-05 2
7.50000000000000000000e-01  5.00000000000000000000e-01  7.07039373750205535352e-01  6.74074363420373856570e-05 2
7.58333333333333303727e-01  5.00000000000000000000e-01  6.88288955877106811698e-01  6.56198166474331046061e-05 2
7.66666666666666718477e-01  5.00000000000000000000e-01  6.69066819134796153534e-01  6.37872240618619912311e-05 2
7.75000000000000022204e-01  5.00000000000000000000e-01  6.49386137414944442092e-01  6.19109152393271244819e-05 2
7.83333333333333325932e-01  5.00000000000000000000e-01  6.29260398874237236733e-01  5.99921756001542405556e-05 2
7.91666666666666629659e-01  5.00000000000000000000e-01  6.08703396688321740626e-01  5.80323203991373048893e-05 2
8.00000000000000044409e-01  5.00000000000000000000e-01  5.87729219599653296413e-01  5.60326928199517126927e-05 2
8.08333333333333348136e-01  5.00000000000000000000e-01  5.66352242261899063713e-01  5.39946629337650918501e-05 2
8.16666666666666651864e-01  5.00000000000000000000e-01  5.44587115386926501337e-01  5.19196281008049709271e-05 2
8.24999999999999955591e-01  5.00000000000000000000e-01  5.22448755705950174111e-01  4.98090099987358314593e-05 2
8.33333333333333370341e-01  5.00000000000000000000e-01  4.99952335744640485871e-01  4.76642553594586182442e-05 2
8.41666666666666674068e-01  5.00000000000000000000e-01  4.77113273425534945016e-01  4.54868340736824805504e-05 2
8.49999999999999977796e-01  5.00000000000000000000e-01  4.53947221501450726144e-01  4.32782380961338475345e-05 2
8.58333333333333281523e-01  5.00000000000000000000e-01  4.30470056826573077569e-01  4.10399817224460505827e-05 2
8.66666666666666696273e-01  5.00000000000000000000e-01  4.06697869477374573943e-01  3.87735984254677923388e-05 2
8.75000000000000000000e-01  5.00000000000000000000e-01  3.82646951723401906875e-01  3.64806416879859263247e-05 2
8.83333333333333303727e-01  5.00000000000000000000e-01  3.58333786862314096489e-01  3.41626829865604442205e-05 2
8.91666666666666718477e-01  5.00000000000000000000e-01  3.33775037923096984382e-01  3.18213106737519346723e-05 2
9.00000000000000022204e-01  5.00000000000000000000e-01  3.08987536245070970597e-01  2.94581298765361765390e-05 2
9.08333333333333325932e-01  5.00000000000000000000e-01  2.83988269944095261810e-01  2.70747598273279876935e-05 2
9.16666666666666629659e-01  5.00000000000000000000e-01  2.58794372268397854242e-01  2.46728341231627901209e-05 2
9.25000000000000044409e-01  5.00000000000000000000e-01  2.33423109857017835322e-01  2.22539988876946370766e-05 2
9.33333333333333348136e-01  5.00000000000000000000e-01  2.07891870905932640845e-01  1.98199118266739748861e-05 2
9.41666666666666651864e-01  5.00000000000000000000e-01  1.82218153250916448105e-01  1.73722412312726781636e-05 2
9.49999999999999955591e-01  5.00000000000000000000e-01  1.56419552375652831655e-01  1.49126645781483269104e-05 2
9.58333333333333370341e-01  5.00000000000000000000e-01  1.30513749352545949112e-01  1.24428675056242887820e-05 2
9.66666666666666674068e-01  5.00000000000000000000e-01  1.04518498724916863996e-01  9.96454273687052971553e-06 2
9.74999999999999977796e-01  5.00000000000000000000e-01  7.84516163390999166083e-02  7.47938874515186036263e-06 2
9.83333333333333281523e-01  5.00000000000000000000e-01  5.23309671341840795811e-02  4.98910876017139015559e-06 2
9.91666666666666696273e-01  5.00000000000000000000e-01  2.61744528983741502060e-02  2.49540949882887108657e-06 2
1.00000000000000000000e+00  5.00000000000000000000e-01  0.00000000000000000000e+00  1.22464679914735320717e-16 2
0.00000000000000000000e+00  5.08333333333333303727e-01  0.00000000000000000000e+00  0.00000000000000000000e+00 2
8.33333333333333321769e-03  5.08333333333333303727e-01  2.61644711016829796535e-02  3.50701978893419585859e-06 2
1.66666666666666664354e-02  5.08333333333333303727e-01  5.23110439003041591266e-02  6.97811755488025875493e-06 2
2.50000000000000013878e-02  5.08333333333333303727e-01  7.84227456243073578479e-02  9.46413099128795565207e-06 2
3.33333333333333328707e-02  5.08333333333333303727e-01  1.04480700315761426689e-01  1.19436581868248570260e-05 2
4.16666666666666643537e-02  5.08333333333333303727e-01  1.30467049154147751722e-01  1.44149997944043040121e-05 2
5.00000000000000027756e-02  5.08333333333333303727e-01  1.56363982394017358990e-01  1.68764620821493238623e-05 2
5.83333333333333342585e-02  5.08333333333333303727e-01  1.82153751570912431079e-01  1.93263580826885661423e-05 2
6.66666666666666657415e-02  5.08333333333333303727e-01  2.07818681665261434377e-01  2.17630087649689496487e-05 2
7.49999999999999972244e-02  5.08333333333333303727e-01  2.33341183215966058162e-01  2.41847441739551083373e-05 2
8.33333333333333287074e-02  5.08333333333333303727e-01  2.58703764375357747607e-01  2.65899045562290048395e-05 2
9.16666666666666601904e-02  5.08333333333333303727e-01  2.83889042897181365088e-01  2.89768415526747702415e-05 2
1.00000000000000005551e-01  5.08333333333333303727e-01  3.08879758049572794576e-01  3.13439192739517480391e-05 2
1.08333333333333337034e-01  5.08333333333333303727e-01  3.33658782444701595971e-01  3.36895154222638382180e-05 2
1.16666666666666668517e-01  5.08333333333333303727e-01  3.58209133776944355088e-01  3.60120224859872273271e-05 2
1.25000000000000000000e-01  5.08333333333333303727e-01  3.82513986461883892520e-01  3.83098486663735471325e-05 2
1.33333333333333331483e-01  5.08333333333333303727e-01  4.06556683167436316850e-01  4.05814192560582931435e-05 2
1.41666666666666662966e-01  5.08333333333333303727e-01  4.30320746230393902376e-01  4.28251772795484875189e-05 2
1.49999999999999994449e-01  5.08333333333333303727e-01  4.53789888948791519940e-01  4.50395851602225505417e-05 2
1.58333333333333325932e-01  5.08333333333333303727e-01  4.76948026744694719703e-01  4.72231250786547818166e-05 2
1.66666666666666657415e-01  5.08333333333333303727e-01  4.99779288187082448847e-01  4.93743006961255836984e-05 2
1.74999999999999988898e-01  5.08333333333333303727e-01  5.22268025869956353802e-01  5.14916375571328188698e-05 2
1.83333333333333320381e-01  5.08333333333333303727e-01  5.44398827135687213286e-01  5.35736847034895546926e-05 2
1.91666666666666679619e-01  5.08333333333333303727e-01  5.66156524638695812790e-01  5.56190150542423822344e-05 2
2.00000000000000011102e-01  5.08333333333333303727e-01  5.87526206739821699188e-01  5.76262269550431582843e-05 2
2.08333333333333342585e-01  5.08333333333333303727e-01  6.08493227726472518668e-01  5.95939446828008811963e-05 2
2.16666666666666674068e-01  5.08333333333333303727e-01  6.29043217849689861865e-01  6.15208197622951757921e-05 2
2.25000000000000005551e-01  5.08333333333333303727e-01  6.49162093172920728890e-01  6.34055314271408931859e-05 2
2.33333333333333337034e-01  5.08333333333333303727e-01  6.68836065223731512930e-01  6.52467882372720353601e-05 2
2.41666666666666668517e-01  5.08333333333333303727e-01  6.88051650444630236159e-01  6.70433280725024616231e-05 2
2.50000000000000000000e-01  5.08333333333333303727e-01  7.06795679433241397227e-01  6.87939197793197010355e-05 2
2.58333333333333359239e-01  5.08333333333333303727e-01  7.25055305968402841188e-01  7.04973635680117283187e-05 2
2.66666666666666662966e-01  5.08333333333333303727e-01  7.42818015814155852006e-01  7.21524920033189687274e-05 2
2.75000000000000022204e-01  5.08333333333333303727e-01  7.60071635296379777280e-01  7.37581708029066973609e-05 2
2.83333333333333325932e-01  5.08333333333333303727e-01  7.76804339646363417593e-01  7.53132992695748626488e-05 2
2.91666666666666685170e-01  5.08333333333333303727e-01  7.93004661104155905704e-01  7.68168118032708235887e-05 2
2.99999999999999988898e-01  5.08333333333333303727e-01  8.08661496778528943175e-01  7.82676780964886020797e-05 2
3.08333333333333348136e-01  5.08333333333333303727e-01  8.23764116256819667328e-01  7.96649033660834504644e-05 2
3.16666666666666651864e-01  5.08333333333333303727e-01  8.38302168957497650936e-01  8.10075305561763769902e-05 2
3.25000000000000011102e-01  5.08333333333333303727e-01  8.52265691225942423337e-01  8.22946389889001039819e-05 2
3.33333333333333314830e-01  5.08333333333333303727e-01  8.65645113160995127721e-01  8.35253470335972636462e-05 2
3.41666666666666674068e-01  5.08333333333333303727e-01  8.78431265175591224903e-01  8.46988108119672844509e-05 2
3.49999999999999977796e-01  5.08333333333333303727e-01  8.90615384279687227753e-01  8.58142262256667009979e-05 2
3.58333333333333337034e-01  5.08333333333333303727e-01  9.02189120086545170984e-01  8.68708289391006971414e-05 2
3.66666666666666640761e-01  5.08333333333333303727e-01  9.13144540535843374229e-01  8.78678947302535817698e-05 2
3.75000000000000000000e-01  5.08333333333333303727e-01  9.23474137329649003014e-01  8.88047402523017836984e-05 2
3.83333333333333359239e-01  5.08333333333333303727e-01  9.33170831078257156932e-01  8.96807234753715931674e-05 2
3.91666666666666662966e-01  5.08333333333333303727e-01  9.42227976152318458247e-01  9.04952438591788421718e-05 2
4.00000000000000022204e-01  5.08333333333333303727e-01  9.50639365236745859100e-01  9.12477434398262232662e-05 2
4.08333333333333325932e-01  5.08333333333333303727e-01  9.58399233585732424068e-01  9.19377063784976300553e-05 2
4.16666666666666685170e-01  5.08333333333333303727e-01  9.65502262973131686330e-01  9.25646598031182321620e-05 2
4.24999999999999988898e-01  5.08333333333333303727e-01  9.71943585337367244037e-01  9.31281740697009752239e-05 2
4.33333333333333348136e-01  5.08333333333333303727e-01  9.77718786118102256566e-01  9.36278627133857455078e-05 2
4.41666666666666651864e-01  5.08333333333333303727e-01  9.82823907280593211944e-01  9.40633838784066256267e-05 2
4.50000000000000011102e-01  5.08333333333333303727e-01  9.87255450030567915931e-01  9.44344383145834243010e-05 2
4.58333333333333314830e-01  5.08333333333333303727e-01  9.91010377209375459273e-01  9.47407723300708326519e-05 2
4.66666666666666674068e-01  5.08333333333333303727e-01  9.94086115377780910052e-01  9.49821756882629486540e-05 2
4.74999999999999977796e-01  5.08333333333333303727e-01  9.96480556578418608105e-01  9.51584830050089536257e-05 2
4.83333333333333337034e-01  5.08333333333333303727e-01  9.98192059780792173562e-01  9.52695735504383023340e-05 2
4.91666666666666640761e-01  5.08333333333333303727e-01  9.99219452006423924928e-01  9.53153708629361773319e-05 2
5.00000000000000000000e-01  5.08333333333333303727e-01  9.99562029131356832856e-01  9.52958442004270267489e-05 2
5.08333333333333303727e-01  5.08333333333333303727e-01  9.99219556371442108045e-01  9.52110058447530605008e-05 2
5.16666666666666718477e-01  5.08333333333333303727e-01  9.98192268438839014344e-01  9.50609155035975206260e-05 2
5.25000000000000022204e-01  5.08333333333333303727e-01  9.96480869387274648119e-01  9.48456741489689392210e-05 2
5.33333333333333325932e-01  5.08333333333333303727e-01  9.94086532122319010973e-01  9.45654311502730493544e-05 2
5.41666666666666629659e-01  5.08333333333333303727e-01  9.91010897604370111225e-01  9.42203773355299034620e-05 2
5.50000000000000044409e-01  5.08333333333333303727e-01  9.87256073719355975449e-01  9.38107495264128843360e-05 2
5.58333333333333348136e-01  5.08333333333333303727e-01  9.82824633835512773139e-01  9.33368289589564525954e-05 2
5.66666666666666651864e-01  5.08333333333333303727e-01  9.77719615041278911072e-01  9.27989395367312397411e-05 2
5.74999999999999955591e-01  5.08333333333333303727e-01  9.71944516061006291707e-01  9.21974504307643272227e-05 2
5.83333333333333370341e-01  5.08333333333333303727e-01  9.65503294858953364788e-01  9.15327739814397745022e-05 2
5.91666666666666674068e-01  5.08333333333333303727e-01  9.58400365926875164035e-01  9.08053652357576623899e-05 2
5.99999999999999977796e-01  5.08333333333333303727e-01  9.50640597256664832138e-01  9.00157235209642081486e-05 2
6.08333333333333281523e-01  5.08333333333333303727e-01  9.42229307007093952464e-01  8.91643890836846253478e-05 2
6.16666666666666696273e-01  5.08333333333333303727e-01  9.33172259855825858565e-01  8.82519459066699596406e-05 2
6.25000000000000000000e-01  5.08333333333333303727e-01  9.23475663050476347493e-01  8.72790194249573048069e-05 2
6.33333333333333303727e-01  5.08333333333333303727e-01  9.13146162154601426231e-01  8.62462759723126026756e-05 2
6.41666666666666718477e-01  5.08333333333333303727e-01  9.02190836491503667105e-01  8.51544239806045766272e-05 2
6.50000000000000022204e-01  5.08333333333333303727e-01  8.90617194294697767099e-01  8.40042112152383779744e-05 2
6.58333333333333325932e-01  5.08333333333333303727e-01  8.78433167560282113229e-01  8.27964261210789587153e-05 2
6.66666666666666629659e-01  5.08333333333333303727e-01  8.65647106611494354667e-01  8.15318965344813406659e-05 2
6.75000000000000044409e-01  5.08333333333333303727e-01  8.52267774375702558132e-01  8.02114892288763314809e-05 2
6.83333333333333348136e-01  5.08333333333333303727e-01  8.38304340379401380368e-01  7.88361086524469456549e-05 2
6.91666666666666651864e-01  5.08333333333333303727e-01  8.23766374462132966450e-01  7.74066980528953507701e-05 2
6.99999999999999955591e-01  5.08333333333333303727e-01  8.08663840220103291578e-01  7.59242365221401982467e-05 2
7.08333333333333370341e-01  5.08333333333333303727e-01  7.93007088175552765641e-01  7.43897404064108869193e-05 2
7.16666666666666674068e-01  5.08333333333333303727e-01  7.76806848684254203086e-01  7.28042613790114145900e-05 2
7.24999999999999977796e-01  5.08333333333333303727e-01  7.60074224581422486224e-01  7.11688857601977531431e-05 2
7.33333333333333281523e-01  5.08333333333333303727e-01  7.42820683571487894170e-01  6.94847346716098712704e-05 2
7.41666666666666696273e-01  5.08333333333333303727e-01  7.25058050369696394100e-01  6.77529622743477943914e-05 2
7.50000000000000000000e-01  5.08333333333333303727e-01  7.06798498597915991759e-01  6.59747551048361913217e-05 2
7.58333333333333303727e-01  5.08333333333333303727e-01  6.88054542440168503958e-01  6.41513325345677287714e-05 2
7.66666666666666718477e-01  5.08333333333333303727e-01  6.68839028068466845411e-01  6.22839435017175091502e-05 2
7.75000000000000022204e-01  5.08333333333333303727e-01  6.49165124836026063981e-01  6.03738683219168237315e-05 2
7.83333333333333325932e-01  5.08333333333333303727e-01  6.29046316253491943904e-01  5.84224159601021142407e-05 2
7.91666666666666629659e-01  5.08333333333333303727e-01  6.08496390747603532745e-01  5.64309235520088492422e-05 2
8.00000000000000044409e-01  5.08333333333333303727e-01  5.87529432210224467070e-01  5.44007565523862979262e-05 2
8.08333333333333348136e-01  5.08333333333333303727e-01  5.66159810348050518414e-01  5.23333056995367584818e-05 2
8.16666666666666651864e-01  5.08333333333333303727e-01  5.44402170832048559745e-01  5.02299883424761617334e-05 2
8.24999999999999955591e-01  5.08333333333333303727e-01  5.22271425261608635005e-01  4.80922459049626382921e-05 2
8.33333333333333370341e-01  5.08333333333333303727e-01  4.99782740944530345928e-01  4.59215432482285024207e-05 2
8.41666666666666674068e-01  5.08333333333333303727e-01  4.76951530501293130548e-01  4.37193684804659810084e-05 2
8.49999999999999977796e-01  5.08333333333333303727e-01  4.53793441303319444735e-01  4.14872306324087780638e-05 2
8.58333333333333281523e-01  5.08333333333333303727e-01  4.30324344748392928484e-01  3.92266592809664693675e-05 2
8.66666666666666696273e-01  5.08333333333333303727e-01  4.06560325382476162037e-01  3.69392042161020839330e-05 2
8.75000000000000000000e-01  5.08333333333333303727e-01  3.82517669877942223522e-01  3.46264326081535678270e-05 2
8.83333333333333303727e-01  5.08333333333333303727e-01  3.58212855869510571338e-01  3.22899299201595546549e-05 2
8.91666666666666718477e-01  5.08333333333333303727e-01  3.33662540662716722295e-01  2.99312974069154691392e-05 2
9.00000000000000022204e-01  5.08333333333333303727e-01  3.08883549817575986385e-01  2.75521512708709614969e-05 2
9.08333333333333325932e-01  5.08333333333333303727e-01  2.83892865616268030848e-01  2.51541224660090101395e-05 2
9.16666666666666629659e-01  5.08333333333333303727e-01  2.58707615425811721099e-01  2.27388541025330681578e-05 2
9.25000000000000044409e-01  5.08333333333333303727e-01  2.33345059958375178333e-01  2.03080017649737154528e-05 2
9.33333333333333348136e-01  5.08333333333333303727e-01  2.07822581442657361439e-01  1.78632313690418875751e-05 2
9.41666666666666651864e-01  5.08333333333333303727e-01  1.82157671710683727317e-01  1.54062183116421280715e-05 2
9.49999999999999955591e-01  5.08333333333333303727e-01  1.56367920209412286647e-01  1.29386466873326888560e-05 2
9.58333333333333370341e-01  5.08333333333333303727e-01  1.30471001946437292762e-01  1.04622075048632634520e-05 2
9.66666666666666674068e-01  5.08333333333333303727e-01  1.04484665375881122240e-01  7.97859806740686128279e-06 2
9.74999999999999977796e-01  5.08333333333333303727e-01  7.84267202347824349262e-02  5.48952051633577742251e-06 2
9.83333333333333281523e-01  5.08333333333333303727e-01  5.23150253371770929123e-02  2.99668068236974560747e-06 2
9.91666666666666696273e-01  5.08333333333333303727e-01  2.61664960324899942279e-02  1.48208898174961856142e-06 2
1.00000000000000000000e+00  5.08333333333333303727e-01  0.00000000000000000000e+00  1.22422714327552165935e-16 2
0.00000000000000000000e+00  5.16666666666666718477e-01  0.00000000000000000000e+00  0.00000000000000000000e+00 2
8.33333333333333321769e-03  5.16666666666666718477e-01  2.61365574834406047544e-02  4.51622654528555100839e-06 2
1.66666666666666664354e-02  5.16666666666666718477e-01  5.22552692899356727163e-02  8.96234389105576845225e-06 2
2.50000000000000013878e-02  5.16666666666666718477e-01  7.83401278769665088131e-02  1.14423869958524271340e-05 2
3.33333333333333328707e-02  5.16666666666666718477e-01  1.04371296053529932779e-01  1.39145880573982028139e-05 2
4.16666666666666643537e-02  5.16666666666666718477e-01  1.30330933357239081571e-01  1.63772527571048875927e-05 2
5.00000000000000027756e-02  5.16666666666666718477e-01  1.56201248349400412252e-01  1.88286933059944594504e-05 2
5.83333333333333342585e-02  5.16666666666666718477e-01  1.81964510808368284955e-01  2.12672296102112134975e-05 2
6.66666666666666657415e-02  5.16666666666666718477e-01  2.07603063880960947429e-01  2.36911904148429108830e-05 2
7.49999999999999972244e-02  5.16666666666666718477e-01  2.33099336183577171555e-01  2.60989144578449572265e-05 2
8.33333333333333287074e-02  5.16666666666666718477e-01  2.58435853844731333595e-01  2.84887516220355685448e-05 2
9.16666666666666601904e-02  5.16666666666666718477e-01  2.83595252480834336684e-01  3.08590640037964547560e-05 2
1.00000000000000005551e-01  5.16666666666666718477e-01  3.08560289096790507646e-01  3.32082271199962697494e-05 2
1.08333333333333337034e-01  5.16666666666666718477e-01  3.33313853903499213160e-01  3.55346310069726278869e-05 2
1.16666666666666668517e-01  5.16666666666666718477e-01  3.57838982044183184783e-01  3.78366811906172273439e-05 2
1.25000000000000000000e-01  5.16666666666666718477e-01  3.82118865220977377284e-01  4.01128000556694175316e-05 2
1.33333333333333331483e-01  5.16666666666666718477e-01  4.06136863214888177431e-01  4.23614275352757196913e-05 2
1.41666666666666662966e-01  5.16666666666666718477e-01  4.29876515289656535579e-01  4.45810226925025254729e-05 2
1.49999999999999994449e-01  5.16666666666666718477e-01  4.53321551473710449010e-01  4.67700641895718582930e-05 2
1.58333333333333325932e-01  5.16666666666666718477e-01  4.76455903710280903596e-01  4.89270518410633847850e-05 2
1.66666666666666657415e-01  5.16666666666666718477e-01  4.99263716869967455469e-01  5.10505073194056357977e-05 2
1.74999999999999988898e-01  5.16666666666666718477e-01  5.21729359616843746394e-01  5.31389753768429784486e-05 2