Titile = 'Poisson'  
VARIABLES = X, Y, U, Error, Rank 
zone N= 3381, E = 6400
DATAPACKING=POINT, ZONETYPE=FETRIANGLE
0.00000000000000000000e+00  8.75000000000000000000e-01  0.00000000000000000000e+00  0.00000000000000000000e+00 7
6.25000000000000034694e-03  8.75000000000000000000e-01  7.51254862878085200723e-03  9.40192052973840008967e-07 7
1.25000000000000006939e-02  8.75000000000000000000e-01  1.50222302924450587525e-02  1.85075625636424434539e-06 7
1.87499999999999993061e-02  8.75000000000000000000e-01  2.25261486333586460895e-02  2.73257396963752507979e-06 7
2.50000000000000013878e-02  8.75000000000000000000e-01  3.00214095369207047137e-02  3.58651647216004509922e-06 7
3.12500000000000000000e-02  8.75000000000000000000e-01  3.75051222516227036885e-02  4.41344030422535782421e-06 7
3.74999999999999986122e-02  8.75000000000000000000e-01  4.49744005073905300796e-02  5.21418303457005238855e-06 7
4.37499999999999972244e-02  8.75000000000000000000e-01  5.24263636316829803596e-02  5.98955955101454495804e-06 7
5.00000000000000027756e-02  8.75000000000000000000e-01  5.98581376628577327415e-02  6.74035893447749723251e-06 7
5.62500000000000013878e-02  8.75000000000000000000e-01  6.72668564603475238606e-02  7.46734194544129703530e-06 7
6.25000000000000000000e-02  8.75000000000000000000e-01  7.46496628112259252852e-02  8.17123911669992430973e-06 7
6.87500000000000055511e-02  8.75000000000000000000e-01  8.20037095327556531110e-02  8.85274943340785824830e-06 7
7.49999999999999972244e-02  8.75000000000000000000e-01  8.93261605705500533192e-02  9.51253954512010224676e-06 7
8.12500000000000027756e-02  8.75000000000000000000e-01  9.66141920919775798460e-02  1.01512434575040666473e-05 7
8.74999999999999944489e-02  8.75000000000000000000e-01  1.03864993574451669467e-01  1.07694626390458791931e-05 7
9.37500000000000000000e-02  8.75000000000000000000e-01  1.11075768888255793643e-01  1.13677664741879125287e-05 7
1.00000000000000005551e-01  8.75000000000000000000e-01  1.18243737373550872327e-01  1.19466929976719260509e-05 7
1.06249999999999997224e-01  8.75000000000000000000e-01  1.25366134911204935021e-01  1.25067498546460598163e-05 7
1.12500000000000002776e-01  8.75000000000000000000e-01  1.32440214987091603449e-01  1.30484154271248709023e-05 7
1.18749999999999994449e-01  8.75000000000000000000e-01  1.39463249749493228835e-01  1.35721400798261004894e-05 7
1.25000000000000000000e-01  8.75000000000000000000e-01  1.46432531059232040604e-01  1.40783474942562936150e-05 7
1.31250000000000005551e-01  8.75000000000000000000e-01  1.53345371532177310314e-01  1.45674360372272104769e-05 7
1.37500000000000011102e-01  8.75000000000000000000e-01  1.60199105573730432583e-01  1.50397801602364378226e-05 7
1.43749999999999988898e-01  8.75000000000000000000e-01  1.66991090404925157653e-01  1.54957317919646175852e-05 7
1.49999999999999994449e-01  8.75000000000000000000e-01  1.73718707079763251544e-01  1.59356217089567930856e-05 7
1.56250000000000000000e-01  8.75000000000000000000e-01  1.80379361493398865379e-01  1.63597608768828450820e-05 7
1.62500000000000005551e-01  8.75000000000000000000e-01  1.86970485380798301378e-01  1.67684417478886071962e-05 7
1.68750000000000011102e-01  8.75000000000000000000e-01  1.93489537305492426134e-01  1.71619395105404581869e-05 7
1.74999999999999988898e-01  8.75000000000000000000e-01  1.99934003638047419482e-01  1.75405132849248968085e-05 7
1.81249999999999994449e-01  8.75000000000000000000e-01  2.06301399523877548869e-01  1.79044072621814542856e-05 7
1.87500000000000000000e-01  8.75000000000000000000e-01  2.12589269840024103209e-01  1.82538517900510122161e-05 7
1.93750000000000005551e-01  8.75000000000000000000e-01  2.18795190140541717660e-01  1.85890643944475186800e-05 7
2.00000000000000011102e-01  8.75000000000000000000e-01  2.24916767590112309794e-01  1.89102507516247797525e-05 7
2.06249999999999988898e-01  8.75000000000000000000e-01  2.30951641885530495335e-01  1.92176056071913237133e-05 7
2.12499999999999994449e-01  8.75000000000000000000e-01  2.36897486164718618085e-01  1.95113136276237053579e-05 7
2.18750000000000000000e-01  8.75000000000000000000e-01  2.42752007902880567736e-01  1.97915502251067021433e-05 7
2.25000000000000005551e-01  8.75000000000000000000e-01  2.48512949795494486604e-01  2.00584823089877684055e-05 7
2.31250000000000011102e-01  8.75000000000000000000e-01  2.54178090627762254261e-01  2.03122690057844224043e-05 7
2.37499999999999988898e-01  8.75000000000000000000e-01  2.59745246130186402400e-01  2.05530623416660951364e-05 7
2.43749999999999994449e-01  8.75000000000000000000e-01  2.65212269819975032803e-01  2.07810078563519518013e-05 7
2.50000000000000000000e-01  8.75000000000000000000e-01  2.70577053827885660731e-01  2.09962452129008880775e-05 7
2.56249999999999977796e-01  8.75000000000000000000e-01  2.75837529710245887848e-01  2.11989087472996828865e-05 7
2.62500000000000011102e-01  8.75000000000000000000e-01  2.80991669245800934629e-01  2.13891279933209332853e-05 7
2.68749999999999988898e-01  8.75000000000000000000e-01  2.86037485217090381440e-01  2.15670281736302094089e-05 7
2.75000000000000022204e-01  8.75000000000000000000e-01  2.90973032176050472319e-01  2.17327306598624758749e-05 7
2.81250000000000000000e-01  8.75000000000000000000e-01  2.95796407193541832648e-01  2.18863534046098706654e-05 7
2.87499999999999977796e-01  8.75000000000000000000e-01  3.00505750592502451912e-01  2.20280113590320958394e-05 7
2.93750000000000011102e-01  8.75000000000000000000e-01  3.05099246664476186908e-01  2.21578168408398390454e-05 7
2.99999999999999988898e-01  8.75000000000000000000e-01  3.09575124369198650953e-01  2.22758798948397007678e-05 7
3.06250000000000022204e-01  8.75000000000000000000e-01  3.13931658016972703340e-01  2.23823086453189823430e-05 7
3.12500000000000000000e-01  8.75000000000000000000e-01  3.18167167933600614216e-01  2.24772096079628447285e-05 7
3.18749999999999977796e-01  8.75000000000000000000e-01  3.22280021107600123109e-01  2.25606879794559844754e-05 7
3.25000000000000011102e-01  8.75000000000000000000e-01  3.26268631819418675200e-01  2.26328479396853410321e-05 7
3.31249999999999988898e-01  8.75000000000000000000e-01  3.30131462252479634945e-01  2.26937928899939578287e-05 7
3.37500000000000022204e-01  8.75000000000000000000e-01  3.33867023085719416553e-01  2.27436257342894521116e-05 7
3.43750000000000000000e-01  8.75000000000000000000e-01  3.37473874067495904772e-01  2.27824490923733691261e-05 7
3.49999999999999977796e-01  8.75000000000000000000e-01  3.40950624570553584292e-01  2.28103655394717996785e-05 7
3.56250000000000011102e-01  8.75000000000000000000e-01  3.44295934127892888643e-01  2.28274778111270393310e-05 7
3.62499999999999988898e-01  8.75000000000000000000e-01  3.47508512949319114949e-01  2.28338889894375007827e-05 7
3.68750000000000022204e-01  8.75000000000000000000e-01  3.50587122418436092364e-01  2.28297027092816406935e-05 7
3.75000000000000000000e-01  8.75000000000000000000e-01  3.53530575569947602688e-01  2.28150233262391921585e-05 7
3.81249999999999977796e-01  8.75000000000000000000e-01  3.56337737547035182661e-01  2.27899560970024062101e-05 7
3.87500000000000011102e-01  8.75000000000000000000e-01  3.59007526038687629910e-01  2.27546073176543295347e-05 7
3.93749999999999988898e-01  8.75000000000000000000e-01  3.61538911696743958668e-01  2.27090844914790146447e-05 7
4.00000000000000022204e-01  8.75000000000000000000e-01  3.63930918532552827305e-01  2.26534964615776601704e-05 7
4.06250000000000000000e-01  8.75000000000000000000e-01  3.66182624293049929776e-01  2.25879535532547137677e-05 7
4.12499999999999977796e-01  8.75000000000000000000e-01  3.68293160816129006019e-01  2.25125677069115681661e-05 7
4.18750000000000011102e-01  8.75000000000000000000e-01  3.70261714365184402276e-01  2.24274525854051276497e-05 7
4.24999999999999988898e-01  8.75000000000000000000e-01  3.72087525942646379917e-01  2.23327237057202587778e-05 7
4.31250000000000022204e-01  8.75000000000000000000e-01  3.73769891582453106516e-01  2.22284985304521676142e-05 7
4.37500000000000000000e-01  8.75000000000000000000e-01  3.75308162621265262171e-01  2.21148966000894731110e-05 7
4.43749999999999977796e-01  8.75000000000000000000e-01  3.76701745948416377718e-01  2.19920396092310177494e-05 7
4.50000000000000011102e-01  8.75000000000000000000e-01  3.77950104234407557868e-01  2.18600515197175937487e-05 7
4.56249999999999988898e-01  8.75000000000000000000e-01  3.79052756137936819325e-01  2.17190586345727965067e-05 7
4.62500000000000022204e-01  8.75000000000000000000e-01  3.80009276491309999635e-01  2.15691897046954572659e-05 7
4.68750000000000000000e-01  8.75000000000000000000e-01  3.80819296464221301868e-01  2.14105760087957008864e-05 7
4.74999999999999977796e-01  8.75000000000000000000e-01  3.81482503705821651696e-01  2.12433514255594424469e-05 7
4.81250000000000011102e-01  8.75000000000000000000e-01  3.81998642464994153656e-01  2.10676525237984968442e-05 7
4.87499999999999988898e-01  8.75000000000000000000e-01  3.82367513688833593477e-01  2.08836186270655588260e-05 7
4.93750000000000022204e-01  8.75000000000000000000e-01  3.82588975099248829181e-01  2.06913918965878629308e-05 7
5.00000000000000000000e-01  8.75000000000000000000e-01  3.82662941247687127255e-01  2.04911174027655462737e-05 7
5.06249999999999977796e-01  8.75000000000000000000e-01  3.82589383547951578102e-01  2.02829431938389426193e-05 7
5.12499999999999955591e-01  8.75000000000000000000e-01  3.82368330287092383912e-01  2.00670203682751235874e-05 7
5.18750000000000044409e-01  8.75000000000000000000e-01  3.81999866614400884757e-01  1.98435031170673958911e-05 7
5.25000000000000022204e-01  8.75000000000000000000e-01  3.81484134508417616072e-01  1.96125488295950667350e-05 7
5.31250000000000000000e-01  8.75000000000000000000e-01  3.80821332722096839163e-01  1.93743181333139169453e-05 7
5.37499999999999977796e-01  8.75000000000000000000e-01  3.80011716706039726077e-01  1.91289749749690152214e-05 7
5.43749999999999955591e-01  8.75000000000000000000e-01  3.79055598509902891280e-01  1.88766866685008416482e-05 7
5.50000000000000044409e-01  8.75000000000000000000e-01  3.77953346661949685092e-01  1.86176239775348584260e-05 7
5.56250000000000022204e-01  8.75000000000000000000e-01  3.76705386026869704086e-01  1.83519611559046502691e-05 7
5.62500000000000000000e-01  8.75000000000000000000e-01  3.75312197641813782845e-01  1.80798760515687995110e-05 7
5.68749999999999977796e-01  8.75000000000000000000e-01  3.73774318530818050466e-01  1.78015501655082175603e-05 7
5.74999999999999955591e-01  8.75000000000000000000e-01  3.72092341497656298177e-01  1.75171686958575101301e-05 7
5.81250000000000044409e-01  8.75000000000000000000e-01  3.70266914897150967168e-01  1.72269206188402357327e-05 7
5.87500000000000022204e-01  8.75000000000000000000e-01  3.68298742385049560077e-01  1.69309987863575095446e-05 7
5.93750000000000000000e-01  8.75000000000000000000e-01  3.66188582646617188932e-01  1.66295999859955578870e-05 7
5.99999999999999977796e-01  8.75000000000000000000e-01  3.63937249104002880085e-01  1.63229250115803914412e-05 7
6.06249999999999955591e-01  8.75000000000000000000e-01  3.61545609602476780697e-01  1.60111787587124965171e-05 7
6.12500000000000044409e-01  8.75000000000000000000e-01  3.59014586075699082546e-01  1.56945703061461827588e-05 7
6.18750000000000022204e-01  8.75000000000000000000e-01  3.56345154190118751369e-01  1.53733130134336981598e-05 7
6.25000000000000000000e-01  8.75000000000000000000e-01  3.53538342968662266941e-01  1.50476246115749390242e-05 7
6.31249999999999977796e-01  8.75000000000000000000e-01  3.50595234393860422095e-01  1.47177272849519091835e-05 7
6.37499999999999955591e-01  8.75000000000000000000e-01  3.47516962990507438658e-01  1.43838478012248138782e-05 7
6.43750000000000044409e-01  8.75000000000000000000e-01  3.44304715388069504378e-01  1.40462176344557931884e-05 7
6.50000000000000022204e-01  8.75000000000000000000e-01  3.40959729863039850972e-01  1.37050730532606301892e-05 7
6.56250000000000000000e-01  8.75000000000000000000e-01  3.37483295861337961874e-01  1.33606552503162667733e-05 7
6.62499999999999977796e-01  8.75000000000000000000e-01  3.33876753500951251041e-01  1.30132105025659861042e-05 7
6.68749999999999955591e-01  8.75000000000000000000e-01  3.30141493055074120022e-01  1.26629902955643913742e-05 7
6.75000000000000044409e-01  8.75000000000000000000e-01  3.26278954415870570127e-01  1.23102514878459246006e-05 7
6.81250000000000022204e-01  8.75000000000000000000e-01  3.22290626539130153905e-01  1.19552564494807000983e-05 7
6.87500000000000000000e-01  8.75000000000000000000e-01  3.18178046869924735507e-01  1.15982732839525759516e-05 7
6.93749999999999977796e-01  8.75000000000000000000e-01  3.13942800749663686322e-01  1.12395759543360007626e-05 7
6.99999999999999955591e-01  8.75000000000000000000e-01  3.09586520804559228726e-01  1.08794445342619283679e-05 7
7.06250000000000044409e-01  8.75000000000000000000e-01  3.05110886315904272781e-01  1.05181654127539658816e-05 7
7.12500000000000022204e-01  8.75000000000000000000e-01  3.00517622572361642330e-01  1.01560314998416778565e-05 7
7.18750000000000000000e-01  8.75000000000000000000e-01  2.95808500204439328574e-01  9.79334250716945575732e-06 7
7.24999999999999977796e-01  8.75000000000000000000e-01  2.90985334501534465002e-01  9.43040517586979376574e-06 7
7.31249999999999955591e-01  8.75000000000000000000e-01  2.86049984711659821546e-01  9.06753360435663680050e-06 7
7.37500000000000044409e-01  8.75000000000000000000e-01  2.81004353324277478254e-01  8.70504951672179672073e-06 7
7.43750000000000022204e-01  8.75000000000000000000e-01  2.75850385336377457168e-01  8.34328261578587415670e-06 7
7.50000000000000000000e-01  8.75000000000000000000e-01  2.70590067502168296620e-01  7.98257093032050946135e-06 7
7.56249999999999977796e-01  8.75000000000000000000e-01  2.65225427566650184819e-01  7.62326118119993623168e-06 7
7.62499999999999955591e-01  8.75000000000000000000e-01  2.59758533483326337077e-01  7.26570920189795188548e-06 7
7.68750000000000044409e-01  8.75000000000000000000e-01  2.54191492616391456760e-01  6.91028037652641202726e-06 7
7.75000000000000022204e-01  8.75000000000000000000e-01  2.48526450927701175742e-01  6.55735010232638693140e-06 7
7.81250000000000000000e-01  8.75000000000000000000e-01  2.42765592148794201455e-01  6.20730431147298311600e-06 7
7.87499999999999977796e-01  8.75000000000000000000e-01  2.36911136938369265570e-01  5.86053997705948681585e-06 7
7.93749999999999955591e-01  8.75000000000000000000e-01  2.30965342025409997584e-01  5.51746572771683041481e-06 7
8.00000000000000044409e-01  8.75000000000000000000e-01  2.24930499338383466101e-01  5.17850248052398320908e-06 7
8.06250000000000022204e-01  8.75000000000000000000e-01  2.18808935120881536962e-01  4.84408405462821711751e-06 7
8.12500000000000000000e-01  8.75000000000000000000e-01  2.12603009033857787147e-01  4.51465795636707412086e-06 7
8.18749999999999977796e-01  8.75000000000000000000e-01  2.06315113245055498092e-01  4.19068608431549805005e-06 7
8.24999999999999955591e-01  8.75000000000000000000e-01  1.99947671505751933818e-01  3.87264558043831641498e-06 7
8.31250000000000044409e-01  8.75000000000000000000e-01  1.93503138215302239455e-01  3.56102970072713631566e-06 7
8.37500000000000022204e-01  8.75000000000000000000e-01  1.86983997473843616133e-01  3.25634870257385244940e-06 7
8.43750000000000000000e-01  8.75000000000000000000e-01  1.80392762123393030071e-01  2.95913088280141955977e-06 7
8.49999999999999977796e-01  8.75000000000000000000e-01  1.73731972777916632289e-01  2.66992355560380367763e-06 7
8.56249999999999955591e-01  8.75000000000000000000e-01  1.67004196842535451717e-01  2.38929418183708719425e-06 7
8.62500000000000044409e-01  8.75000000000000000000e-01  1.60212027522380062727e-01  2.11783151055078278091e-06 7
8.68750000000000022204e-01  8.75000000000000000000e-01  1.53358082821474367430e-01  1.85614674025336157115e-06 7
8.75000000000000000000e-01  8.75000000000000000000e-01  1.46445004531934236391e-01  1.60487479208826222532e-06 7
8.81249999999999977796e-01  8.75000000000000000000e-01  1.39475457214041725917e-01  1.36467553132901819879e-06 7
8.87499999999999955591e-01  8.75000000000000000000e-01  1.32452127167436650712e-01  1.13623508221638580551e-06 7
8.93750000000000044409e-01  8.75000000000000000000e-01  1.25377721393962193730e-01  9.20267097331839423191e-07 7
9.00000000000000022204e-01  8.75000000000000000000e-01  1.18254966552523460566e-01  7.17514025125320920040e-07 7
9.06250000000000000000e-01  8.75000000000000000000e-01  1.11086607906397794032e-01  5.28748332215278615820e-07 7
9.12499999999999977796e-01  8.75000000000000000000e-01  1.03875408263474619530e-01  3.54773616234593802687e-07 7
9.18749999999999955591e-01  8.75000000000000000000e-01  9.66241469097965516299e-02  1.96425638615549402743e-07 7
9.25000000000000044409e-01  8.75000000000000000000e-01  8.93356185369222483006e-02  5.45731729806320231546e-08 7
9.31250000000000022204e-01  8.75000000000000000000e-01  8.20126321635921695652e-02  6.98814031224737064463e-08 7
9.37500000000000000000e-01  8.75000000000000000000e-01  7.46580100520721212654e-02  1.76001729357277980625e-07 7
9.43749999999999977796e-01  8.75000000000000000000e-01  6.72745866198126568625e-02  2.62817519608438132650e-07 7
9.49999999999999955591e-01  8.75000000000000000000e-01  5.98652073467479950430e-02  3.29324955743170999511e-07 7
9.56250000000000044409e-01  8.75000000000000000000e-01  5.24327276788214141634e-02  3.74487587405381017192e-07 7
9.62500000000000022204e-01  8.75000000000000000000e-01  4.49800119282383545349e-02  3.97237813289097463354e-07 7
9.68750000000000000000e-01  8.75000000000000000000e-01  3.75099321707685132155e-02  3.96478841500902401407e-07 7
9.74999999999999977796e-01  8.75000000000000000000e-01  3.00253671407793160109e-02  3.71087386402679797470e-07 7
9.81249999999999955591e-01  8.75000000000000000000e-01  2.25292011242017413408e-02  3.19916873280784441747e-07 7
9.87500000000000044409e-01  8.75000000000000000000e-01  1.50243228499697973471e-02  2.41801268414248982097e-07 7
9.93750000000000022204e-01  8.75000000000000000000e-01  7.51362438029390747318e-03  1.35559459993155051460e-07 7
1.00000000000000000000e+00  8.75000000000000000000e-01  0.00000000000000000000e+00  4.68652040532629981719e-17 7
0.00000000000000000000e+00  8.81249999999999977796e-01  0.00000000000000000000e+00  0.00000000000000000000e+00 7
6.25000000000000034694e-03  8.81249999999999977796e-01  7.15498797522746889793e-03  9.13730371219188819421e-07 7
1.25000000000000006939e-02  8.81249999999999977796e-01  1.43072470203333221989e-02  1.79765453773086947287e-06 7
1.87499999999999993061e-02  8.81249999999999977796e-01  2.14540185181380758939e-02  2.65271689806056976124e-06 7
2.50000000000000013878e-02  8.81249999999999977796e-01  2.85925459899410705500e-02  3.47985005262965718664e-06 7
3.12500000000000000000e-02  8.81249999999999977796e-01  3.57200761632430474624e-02  4.27996939666303033434e-06 7
3.74999999999999986122e-02  8.81249999999999977796e-01  4.28338600376910738632e-02  5.05396826130238840946e-06 7
4.37499999999999972244e-02  8.81249999999999977796e-01  4.99311539487218708500e-02  5.80271371786178491448e-06 7
5.00000000000000027756e-02  8.81249999999999977796e-01  5.70092206284269695238e-02  6.52704311333157649599e-06 7
5.62500000000000013878e-02  8.81249999999999977796e-01  6.40653302632094023839e-02  7.22776135970992772428e-06 7
6.25000000000000000000e-02  8.81249999999999977796e-01  7.10967615478381165239e-02  7.90563896442553204480e-06 7
6.87500000000000055511e-02  8.81249999999999977796e-01  7.81008027355400424874e-02  8.56141075621097424886e-06 7
7.49999999999999972244e-02  8.81249999999999977796e-01  8.50747526837966200342e-02  9.19577523518511075196e-06 7
8.12500000000000027756e-02  8.81249999999999977796e-01  9.20159218955193536349e-02  9.80939447008111198301e-06 7
8.74999999999999944489e-02  8.81249999999999977796e-01  9.89216335552862147118e-02  1.04028944586664895411e-05 7
9.37500000000000000000e-02  8.81249999999999977796e-01  1.05789224560330852309e-01  1.09768658606568259017e-05 7
1.00000000000000005551e-01  8.81249999999999977796e-01  1.12616046545960163394e-01  1.15318650292933755352e-05 7
1.06249999999999997224e-01  8.81249999999999977796e-01  1.19399466905077994427e-01  1.20684152679906286920e-05 7
1.12500000000000002776e-01  8.81249999999999977796e-01  1.26136869801491635634e-01  1.25870082423873430599e-05 7
1.18749999999999994449e-01  8.81249999999999977796e-01  1.32825657176651790170e-01  1.30881055054321571163e-05 7
1.25000000000000000000e-01  8.81249999999999977796e-01  1.39463249749492979035e-01  1.35721400800481450943e-05 7
1.31250000000000005551e-01  8.81249999999999977796e-01  1.46047088009016640120e-01  1.40395180710517486489e-05 7
1.37500000000000011102e-01  8.81249999999999977796e-01  1.52574633199269338313e-01  1.44906202706740483421e-05 7
1.43749999999999988898e-01  8.81249999999999977796e-01  1.59043368296348408553e-01  1.49258037446808877746e-05 7
1.49999999999999994449e-01  8.81249999999999977796e-01  1.65450798977085422603e-01  1.53454033721411864377e-05 7
1.56250000000000000000e-01  8.81249999999999977796e-01  1.71794454579034916453e-01  1.57497333364009506340e-05 7
1.62500000000000005551e-01  8.81249999999999977796e-01  1.78071889051410692240e-01  1.61390885551615514970e-05 7
1.68750000000000011102e-01  8.81249999999999977796e-01  1.84280681896611675530e-01  1.65137460401698632495e-05 7
1.74999999999999988898e-01  8.81249999999999977796e-01  1.90418439101962572169e-01  1.68739661975114696446e-05 7
1.81249999999999994449e-01  8.81249999999999977796e-01  1.96482794061333537750e-01  1.72199940450812327697e-05 7
1.87500000000000000000e-01  8.81249999999999977796e-01  2.02471408486252640868e-01  1.75520603774015349074e-05 7
1.93750000000000005551e-01  8.81249999999999977796e-01  2.08381973306193429840e-01  1.78703828437321021738e-05 7
2.00000000000000011102e-01  8.81249999999999977796e-01  2.14212209557651384051e-01  1.81751669783847269457e-05 7
2.06249999999999988898e-01  8.81249999999999977796e-01  2.19959869261689727749e-01  1.84666071594841163517e-05 7
2.12499999999999994449e-01  8.81249999999999977796e-01  2.25622736289608799565e-01  1.87448875033080497587e-05 7
2.18750000000000000000e-01  8.81249999999999977796e-01  2.31198627216385899086e-01  1.90101827134137035813e-05 7
2.25000000000000005551e-01  8.81249999999999977796e-01  2.36685392161575275383e-01  1.92626588648991958763e-05 7
2.31250000000000011102e-01  8.81249999999999977796e-01  2.42080915617328085165e-01  1.95024741405924739723e-05 7
2.37499999999999988898e-01  8.81249999999999977796e-01  2.47383117263200696945e-01  1.97297795300199751978e-05 7
2.43749999999999994449e-01  8.81249999999999977796e-01  2.52589952767462266880e-01  1.99447194670354654988e-05 7
2.50000000000000000000e-01  8.81249999999999977796e-01  2.57699414574559415581e-01  2.01474324380002123291e-05 7
2.56249999999999977796e-01  8.81249999999999977796e-01  2.62709532678448209886e-01  2.03380515474971268475e-05 7
2.62500000000000011102e-01  8.81249999999999977796e-01  2.67618375381492801246e-01  2.05167050431054320825e-05 7
2.68749999999999988898e-01  8.81249999999999977796e-01  2.72424050038615084279e-01  2.06835168223284959765e-05 7
2.75000000000000022204e-01  8.81249999999999977796e-01  2.77124703786449433363e-01  2.08386068813459779392e-05 7
2.81250000000000000000e-01  8.81249999999999977796e-01  2.81718524257156710533e-01  2.09820917681513563480e-05 7
2.87499999999999977796e-01  8.81249999999999977796e-01  2.86203740276695095535e-01  2.11140849695756749327e-05 7
2.93750000000000011102e-01  8.81249999999999977796e-01  2.90578622547196463444e-01  2.12346973125221438750e-05 7
2.99999999999999988898e-01  8.81249999999999977796e-01  2.94841484313253243688e-01  2.13440373110773684573e-05 7
3.06250000000000022204e-01  8.81249999999999977796e-01  2.98990682011808672769e-01  2.14422115112355982092e-05 7
3.12500000000000000000e-01  8.81249999999999977796e-01  3.03024615905429339779e-01  2.15293248020942407095e-05 7
3.18749999999999977796e-01  8.81249999999999977796e-01  3.06941730698701398250e-01  2.16054807081200728192e-05 7
3.25000000000000011102e-01  8.81249999999999977796e-01  3.10740516137495925708e-01  2.16707816803607400402e-05 7
3.31249999999999988898e-01  8.81249999999999977796e-01  3.14419507590903035688e-01  2.17253293539609870777e-05 7
3.37500000000000022204e-01  8.81249999999999977796e-01  3.17977286615584442409e-01  2.17692247999612398246e-05 7
3.43750000000000000000e-01  8.81249999999999977796e-01  3.21412481502351188301e-01  2.18025687453993199938e-05 7
3.49999999999999977796e-01  8.81249999999999977796e-01  3.24723767804711460627e-01  2.18254618065683025918e-05 7
3.56250000000000011102e-01  8.81249999999999977796e-01  3.27909868849235341948e-01  2.18380046849708797652e-05 7
3.62499999999999988898e-01  8.81249999999999977796e-01  3.30969556227492578415e-01  2.18402983722665311461e-05 7
3.68750000000000022204e-01  8.81249999999999977796e-01  3.33901650269403382776e-01  2.18324443360673470238e-05 7
3.75000000000000000000e-01  8.81249999999999977796e-01  3.36705020497820861625e-01  2.18145446829187683591e-05 7
3.81249999999999977796e-01  8.81249999999999977796e-01  3.39378586064139342593e-01  2.17867023314943786261e-05 7
3.87500000000000011102e-01  8.81249999999999977796e-01  3.41921316164797428616e-01  2.17490211575910308284e-05 7
3.93749999999999988898e-01  8.81249999999999977796e-01  3.44332230438471942335e-01  2.17016061541674964985e-05 7
4.00000000000000022204e-01  8.81249999999999977796e-01  3.46610399343853847753e-01  2.16445635634054944774e-05 7
4.06250000000000000000e-01  8.81249999999999977796e-01  3.48754944517822074168e-01  2.15780010174304592852e-05 7
4.12499999999999977796e-01  8.81249999999999977796e-01  3.50765039113915877422e-01  2.15020276501109997014e-05 7
4.18750000000000011102e-01  8.81249999999999977796e-01  3.52639908120931433455e-01  2.14167542239018793282e-05 7
4.24999999999999988898e-01  8.81249999999999977796e-01  3.54378828661554456936e-01  2.13222932356482708371e-05 7
4.31250000000000022204e-01  8.81249999999999977796e-01  3.55981130270873691313e-01  2.12187590428736250203e-05 7
4.37500000000000000000e-01  8.81249999999999977796e-01  3.57446195154738965982e-01  2.11062679383866580451e-05 7
4.43749999999999977796e-01  8.81249999999999977796e-01  3.58773458427768310308e-01  2.09849382702409492651e-05 7
4.50000000000000011102e-01  8.81249999999999977796e-01  3.59962408330993188788e-01  2.08548905245020677057e-05 7
4.56249999999999988898e-01  8.81249999999999977796e-01  3.61012586429008519584e-01  2.07162474216704417529e-05 7
4.62500000000000022204e-01  8.81249999999999977796e-01  3.61923587786586287152e-01  2.05691339915103910130e-05 7
4.68750000000000000000e-01  8.81249999999999977796e-01  3.62695061124645112827e-01  2.04136776653651708102e-05 7
4.74999999999999977796e-01  8.81249999999999977796e-01  3.63326708955559185554e-01  2.02500083429923982692e-05 7
4.81250000000000011102e-01  8.81249999999999977796e-01  3.63818287697700304406e-01  2.00782584874326097690e-05 7
4.87499999999999988898e-01  8.81249999999999977796e-01  3.64169607769240011308e-01  1.98985631771897431008e-05 7
4.93750000000000022204e-01  8.81249999999999977796e-01  3.64380533661098071629e-01  1.97110601932726225982e-05 7
5.00000000000000000000e-01  8.81249999999999977796e-01  3.64450983989066390478e-01  1.95158900832548276583e-05 7
5.06249999999999977796e-01  8.81249999999999977796e-01  3.64380931525062567999e-01  1.93131962287762526387e-05 7
5.12499999999999955591e-01  8.81249999999999977796e-01  3.64170403207513149191e-01  1.91031249040518602555e-05 7
5.18750000000000044409e-01  8.81249999999999977796e-01  3.63819480130833650122e-01  1.88858253540868936682e-05 7
5.25000000000000022204e-01  8.81249999999999977796e-01  3.63328297514033615734e-01  1.86614498685622187679e-05 7
5.31250000000000000000e-01  8.81249999999999977796e-01  3.62697044648499500319e-01  1.84301538110331897258e-05 7
5.37499999999999977796e-01  8.81249999999999977796e-01  3.61925964824863943825e-01  1.81920957138537175979e-05 7
5.43749999999999955591e-01  8.81249999999999977796e-01  3.61015355239112101238e-01  1.79474373180887880608e-05 7
5.50000000000000044409e-01  8.81249999999999977796e-01  3.59965566877856746331e-01  1.76963436608890134494e-05 7
5.56250000000000022204e-01  8.81249999999999977796e-01  3.58777004382912045877e-01  1.74389831265053807385e-05 7
5.62500000000000000000e-01  8.81249999999999977796e-01  3.57450125895155290667e-01  1.71755275220619729737e-05 7
5.68749999999999977796e-01  8.81249999999999977796e-01  3.55985442877795432715e-01  1.69061521211322229874e-05 7
5.74999999999999955591e-01  8.81249999999999977796e-01  3.54383519919047762503e-01  1.66310357423982146940e-05 7
5.81250000000000044409e-01  8.81249999999999977796e-01  3.52644974514318143566e-01  1.63503608371917685815e-05 7
5.87500000000000022204e-01  8.81249999999999977796e-01  3.50770476828010213666e-01  1.60643135557747562814e-05 7
5.93750000000000000000e-01  8.81249999999999977796e-01  3.48760749435042982647e-01  1.57730837965219805596e-05 7
5.99999999999999977796e-01  8.81249999999999977796e-01  3.46616567042111689556e-01  1.54768653055636917770e-05 7
6.06249999999999955591e-01  8.81249999999999977796e-01  3.44338756188866168539e-01  1.51758557599412924333e-05 7
6.12500000000000044409e-01  8.81249999999999977796e-01  3.41928194929126239021e-01  1.48702568287251146728e-05 7
6.18750000000000022204e-01  8.81249999999999977796e-01  3.39385812492174310240e-01  1.45602742965267317743e-05 7
6.25000000000000000000e-01  8.81249999999999977796e-01  3.36712588924366174048e-01  1.42461181376063450443e-05 7
6.31249999999999977796e-01  8.81249999999999977796e-01  3.33909554711133094163e-01  1.39280026063559603244e-05 7
6.37499999999999955591e-01  8.81249999999999977796e-01  3.30977790379505198981e-01  1.36061463597569876072e-05 7