Titile = 'Poisson'  
VARIABLES = X, Y, U, Error, Rank 
zone N= 3381, E = 6400
DATAPACKING=POINT, ZONETYPE=FETRIANGLE
0.00000000000000000000e+00  7.50000000000000000000e-01  0.00000000000000000000e+00  0.00000000000000000000e+00 6
6.25000000000000034694e-03  7.50000000000000000000e-01  1.38670461381084110519e-02  1.60709405330541899026e-05 6
1.25000000000000006939e-02  7.50000000000000000000e-01  2.77291273314535929861e-02  3.17546199183060817717e-05 6
1.87499999999999993061e-02  7.50000000000000000000e-01  4.15954757103070699165e-02  3.24687653504573958685e-05 6
2.50000000000000013878e-02  7.50000000000000000000e-01  5.54457882414658709269e-02  3.31703934577723402732e-05 6
3.12500000000000000000e-02  7.50000000000000000000e-01  6.92747253657984840558e-02  3.38592337472548576827e-05 6
3.74999999999999986122e-02  7.50000000000000000000e-01  8.30769557647996481631e-02  3.45350206558264760659e-05 6
4.37499999999999972244e-02  7.50000000000000000000e-01  9.68471584159159848415e-02  3.51974936518700820542e-05 6
5.00000000000000027756e-02  7.50000000000000000000e-01  1.10580024643880003854e-01  3.58463973571532257267e-05 6
5.62500000000000013878e-02  7.50000000000000000000e-01  1.24270260167369958615e-01  3.64814815807246173307e-05 6
6.25000000000000000000e-02  7.50000000000000000000e-01  1.37912587139965153726e-01  3.71025015063475294141e-05 6
6.87500000000000055511e-02  7.50000000000000000000e-01  1.51501746184929952932e-01  3.77092177132332118106e-05 6
7.49999999999999972244e-02  7.50000000000000000000e-01  1.65032498422781503944e-01  3.83013962901579407827e-05 6
8.12500000000000027756e-02  7.50000000000000000000e-01  1.78499627490941198404e-01  3.88788089624170218883e-05 6
8.74999999999999944489e-02  7.50000000000000000000e-01  1.91897941554827616839e-01  3.94412330934901245172e-05 6
9.37500000000000000000e-02  7.50000000000000000000e-01  2.05222275309289076128e-01  3.99884518895998741783e-05 6
1.00000000000000005551e-01  7.50000000000000000000e-01  2.18467491970013333313e-01  4.05202543971860951189e-05 6
1.06249999999999997224e-01  7.50000000000000000000e-01  2.31628485253908972252e-01  4.10364355307168970910e-05 6
1.12500000000000002776e-01  7.50000000000000000000e-01  2.44700181347433654011e-01  4.15367963929602623807e-05 6
1.18749999999999994449e-01  7.50000000000000000000e-01  2.57677540863023690765e-01  4.20211439737805392269e-05 6
1.25000000000000000000e-01  7.50000000000000000000e-01  2.70555560781472248522e-01  4.24892916262575859321e-05 6
1.31250000000000005551e-01  7.50000000000000000000e-01  2.83329276380976213812e-01  4.29410588507761481480e-05 6
1.37500000000000011102e-01  7.50000000000000000000e-01  2.95993763151008171253e-01  4.33762714874830201950e-05 6
1.43749999999999988898e-01  7.50000000000000000000e-01  3.08544138690840186179e-01  4.37947617520362264543e-05 6
1.49999999999999994449e-01  7.50000000000000000000e-01  3.20975564591853890217e-01  4.41963682491497422689e-05 6
1.56250000000000000000e-01  7.50000000000000000000e-01  3.33283248302614409919e-01  4.45809362588645008429e-05 6
1.62500000000000005551e-01  7.50000000000000000000e-01  3.45462444976818661146e-01  4.49483174678744212827e-05 6
1.68750000000000011102e-01  7.50000000000000000000e-01  3.57508459302310788175e-01  4.52983702401432708484e-05 6
1.74999999999999988898e-01  7.50000000000000000000e-01  3.69416647311321066915e-01  4.56309595645021381927e-05 6
1.81249999999999994449e-01  7.50000000000000000000e-01  3.81182418170478265473e-01  4.59459574325693509422e-05 6
1.87500000000000000000e-01  7.50000000000000000000e-01  3.92801235951486749087e-01  4.62432420643144048711e-05 6
1.93750000000000005551e-01  7.50000000000000000000e-01  4.04268621378593984161e-01  4.65226991746003903927e-05 6
2.00000000000000011102e-01  7.50000000000000000000e-01  4.15580153556547982063e-01  4.67842209054825097780e-05 6
2.06249999999999988898e-01  7.50000000000000000000e-01  4.26731471674435591801e-01  4.70277063690516250460e-05 6
2.12499999999999994449e-01  7.50000000000000000000e-01  4.37718276686730523029e-01  4.72530618138011782037e-05 6
2.18750000000000000000e-01  7.50000000000000000000e-01  4.48536332971058104846e-01  4.74602002600854611103e-05 6
2.25000000000000005551e-01  7.50000000000000000000e-01  4.59181469960781796225e-01  4.76490418597763643049e-05 6
2.31250000000000011102e-01  7.50000000000000000000e-01  4.69649583752747457055e-01  4.78195140160009302122e-05 6
2.37499999999999988898e-01  7.50000000000000000000e-01  4.79936638690219519177e-01  4.79715506076505704414e-05 6
2.43749999999999994449e-01  7.50000000000000000000e-01  4.90038668917304465200e-01  4.81050934138527175321e-05 6
2.50000000000000000000e-01  7.50000000000000000000e-01  4.99951779909294402593e-01  4.82200907055974070659e-05 6
2.56249999999999977796e-01  7.50000000000000000000e-01  5.09672149973115828914e-01  4.83164982306716339622e-05 6
2.62500000000000011102e-01  7.50000000000000000000e-01  5.19196031720929207509e-01  4.83942789666347294997e-05 6
2.68749999999999988898e-01  7.50000000000000000000e-01  5.28519753515337753491e-01  4.84534026147231955406e-05 6
2.75000000000000022204e-01  7.50000000000000000000e-01  5.37639720883842930910e-01  4.84938466436268811321e-05 6
2.81250000000000000000e-01  7.50000000000000000000e-01  5.46552417905458165492e-01  4.85155954206284434349e-05 6
2.87499999999999977796e-01  7.50000000000000000000e-01  5.55254408566043022866e-01  4.85186403389459286473e-05 6
2.93750000000000011102e-01  7.50000000000000000000e-01  5.63742338082103722208e-01  4.85029806689407649856e-05 6
2.99999999999999988898e-01  7.50000000000000000000e-01  5.72012934195913924640e-01  4.84686217704366484327e-05 6
3.06250000000000022204e-01  7.50000000000000000000e-01  5.80063008434436033767e-01  4.84155776871997289845e-05 6
3.12500000000000000000e-01  7.50000000000000000000e-01  5.87889457341413956826e-01  4.83438682654657725379e-05 6
3.18749999999999977796e-01  7.50000000000000000000e-01  5.95489263671518886945e-01  4.82535214426649261554e-05 6
3.25000000000000011102e-01  7.50000000000000000000e-01  6.02859497554800838337e-01  4.81445719902051649797e-05 6
3.31249999999999988898e-01  7.50000000000000000000e-01  6.09997317625981749778e-01  4.80170617270792021714e-05 6
3.37500000000000022204e-01  7.50000000000000000000e-01  6.16899972119027029116e-01  4.78710403337689882619e-05 6
3.43750000000000000000e-01  7.50000000000000000000e-01  6.23564799930042323872e-01  4.77065632932260896837e-05 6
3.49999999999999977796e-01  7.50000000000000000000e-01  6.29989231640360469733e-01  4.75236946899659784549e-05 6
3.56250000000000011102e-01  7.50000000000000000000e-01  6.36170790509272721103e-01  4.73225050131587110513e-05 6
3.62499999999999988898e-01  7.50000000000000000000e-01  6.42107093429032049769e-01  4.71030709565667393690e-05 6
3.68750000000000022204e-01  7.50000000000000000000e-01  6.47795851840425429558e-01  4.68654785512612193088e-05 6
3.75000000000000000000e-01  7.50000000000000000000e-01  6.53234872620041095992e-01  4.66098181471918948660e-05 6
3.81249999999999977796e-01  7.50000000000000000000e-01  6.58422058921395048081e-01  4.63361887433899610755e-05 6
3.87500000000000011102e-01  7.50000000000000000000e-01  6.63355410985023485892e-01  4.60446962312621721480e-05 6
3.93749999999999988898e-01  7.50000000000000000000e-01  6.68033026910701210888e-01  4.57354520805308695230e-05 6
4.00000000000000022204e-01  7.50000000000000000000e-01  6.72453103387559480986e-01  4.54085763978984147116e-05 6
4.06250000000000000000e-01  7.50000000000000000000e-01  6.76613936392206127834e-01  4.50641949703012301143e-05 6
4.12499999999999977796e-01  7.50000000000000000000e-01  6.80513921844992153432e-01  4.47024398839701575525e-05 6
4.18750000000000011102e-01  7.50000000000000000000e-01  6.84151556225739976291e-01  4.43234521482205323650e-05 6
4.24999999999999988898e-01  7.50000000000000000000e-01  6.87525437159535290910e-01  4.39273754853086728644e-05 6
4.31250000000000022204e-01  7.50000000000000000000e-01  6.90634263948197602012e-01  4.35143654459180240224e-05 6
4.37500000000000000000e-01  7.50000000000000000000e-01  6.93476838082254243290e-01  4.30845788195188816871e-05 6
4.43749999999999977796e-01  7.50000000000000000000e-01  6.96052063694167277852e-01  4.26381823956933914133e-05 6
4.50000000000000011102e-01  7.50000000000000000000e-01  6.98358947985179723261e-01  4.21753485306819442258e-05 6
4.56249999999999988898e-01  7.50000000000000000000e-01  7.00396601608502256120e-01  4.16962546371246745025e-05 6
4.62500000000000022204e-01  7.50000000000000000000e-01  7.02164239008458146429e-01  4.12010868313661404727e-05 6
4.68750000000000000000e-01  7.50000000000000000000e-01  7.03661178728584690845e-01  4.06900346064942297630e-05 6
4.74999999999999977796e-01  7.50000000000000000000e-01  7.04886843669271012658e-01  4.01632958363373759880e-05 6
4.81250000000000011102e-01  7.50000000000000000000e-01  7.05840761313525466569e-01  3.96210734138202624877e-05 6
4.87499999999999988898e-01  7.50000000000000000000e-01  7.06522563908317025039e-01  3.90635759965896056656e-05 6
4.93750000000000022204e-01  7.50000000000000000000e-01  7.06931988604813432708e-01  3.84910194639598302047e-05 6
5.00000000000000000000e-01  7.50000000000000000000e-01  7.07068877563378883622e-01  3.79036231686891156301e-05 6
5.06249999999999977796e-01  7.50000000000000000000e-01  7.06933178009798934838e-01  3.73016144784577008409e-05 6
5.12499999999999955591e-01  7.50000000000000000000e-01  7.06524942258583865673e-01  3.66852257297489714460e-05 6
5.18750000000000044409e-01  7.50000000000000000000e-01  7.05844327693289419479e-01  3.60546936498673531446e-05 6
5.25000000000000022204e-01  7.50000000000000000000e-01  7.04891596702821421339e-01  3.54102622859286952917e-05 6
5.31250000000000000000e-01  7.50000000000000000000e-01  7.03667116583932217289e-01  3.47521792590788081156e-05 6
5.37499999999999977796e-01  7.50000000000000000000e-01  7.02171359396802863273e-01  3.40806984866492967967e-05 6
5.43749999999999955591e-01  7.50000000000000000000e-01  7.00404901783742039889e-01  3.33960793973409053592e-05 6
5.50000000000000044409e-01  7.50000000000000000000e-01  6.98368424748700422633e-01  3.26985850098715502554e-05 6
5.56250000000000022204e-01  7.50000000000000000000e-01  6.96062713391705001342e-01  3.19884848579699010429e-05 6
5.62500000000000000000e-01  7.50000000000000000000e-01  6.93488656608403863935e-01  3.12660526698982366156e-05 6
5.68749999999999977796e-01  7.50000000000000000000e-01  6.90647246746756260372e-01  3.05315668872596646111e-05 6
5.74999999999999955591e-01  7.50000000000000000000e-01  6.87539579224691554948e-01  2.97853103290446341589e-05 6
5.81250000000000044409e-01  7.50000000000000000000e-01  6.84166852107096157276e-01  2.90275707920395475981e-05 6
5.87500000000000022204e-01  7.50000000000000000000e-01  6.80530365643499446371e-01  2.82586413766772182043e-05 6
5.93750000000000000000e-01  7.50000000000000000000e-01  6.76631521770094224166e-01  2.74788170822048982700e-05 6
5.99999999999999977796e-01  7.50000000000000000000e-01  6.72471823564743775847e-01  2.66883992136035530507e-05 6
6.06249999999999955591e-01  7.50000000000000000000e-01  6.68052874670343244112e-01  2.58876924386086670893e-05 6
6.12500000000000044409e-01  7.50000000000000000000e-01  6.63376378675660904882e-01  2.50770055937321600936e-05 6
6.18750000000000022204e-01  7.50000000000000000000e-01  6.58444138458861183416e-01  2.42566512772546261090e-05 6
6.25000000000000000000e-01  7.50000000000000000000e-01  6.53258055492898614958e-01  2.34269452896729291069e-05 6
6.31249999999999977796e-01  7.50000000000000000000e-01  6.47820129111220777141e-01  2.25882077559136362765e-05 6
6.37499999999999955591e-01  7.50000000000000000000e-01  6.42132455737625451597e-01  2.17407623632759339216e-05 6
6.43750000000000044409e-01  7.50000000000000000000e-01  6.36197228079227183883e-01  2.08849350585849080630e-05 6
6.50000000000000022204e-01  7.50000000000000000000e-01  6.30016734278544432435e-01  2.00210565061142986565e-05 6
6.56250000000000000000e-01  7.50000000000000000000e-01  6.23593357034249784476e-01  1.91494590858765079133e-05 6
6.62499999999999977796e-01  7.50000000000000000000e-01  6.16929572679510207500e-01  1.82704798507016263898e-05 6
6.68749999999999955591e-01  7.50000000000000000000e-01  6.10027950231366133949e-01  1.73844563429170761992e-05 6
6.75000000000000044409e-01  7.50000000000000000000e-01  6.02891150395600483591e-01  1.64917311905599106581e-05 6
6.81250000000000022204e-01  7.50000000000000000000e-01  5.95521924545156178255e-01  1.55926478054846384680e-05 6
6.87500000000000000000e-01  7.50000000000000000000e-01  5.87923113655875462236e-01  1.46875538040713848886e-05 6
6.93749999999999977796e-01  7.50000000000000000000e-01  5.80097647215690237488e-01  1.37767964329960079795e-05 6
6.99999999999999955591e-01  7.50000000000000000000e-01  5.72048542088958167362e-01  1.28607287261939262635e-05 6
7.06250000000000044409e-01  7.50000000000000000000e-01  5.63778901359943906968e-01  1.19397028287560047488e-05 6
7.12500000000000022204e-01  7.50000000000000000000e-01  5.55291913132463621494e-01  1.10140739183473002072e-05 6
7.18750000000000000000e-01  7.50000000000000000000e-01  5.46590849302443726465e-01  1.00841984351784930141e-05 6
7.24999999999999977796e-01  7.50000000000000000000e-01  5.37679064294453890049e-01  9.15043603266774141503e-06 6
7.31249999999999955591e-01  7.50000000000000000000e-01  5.28559993773088598878e-01  8.21314486409985278215e-06 6
7.37500000000000044409e-01  7.50000000000000000000e-01  5.19237153311135846145e-01  7.27268875988507090824e-06 6
7.43750000000000022204e-01  7.50000000000000000000e-01  5.09714137043598247701e-01  6.32942774847489175727e-06 6
7.50000000000000000000e-01  7.50000000000000000000e-01  4.99994616272209424501e-01  5.38372779068652107526e-06 6
7.56249999999999977796e-01  7.50000000000000000000e-01  4.90082338059755651116e-01  4.43595096266680144481e-06 6
7.62499999999999955591e-01  7.50000000000000000000e-01  4.79981123775982121415e-01  3.48646484527037614498e-06 6
7.68750000000000044409e-01  7.50000000000000000000e-01  4.69694867632448664896e-01  2.53563431468206701425e-06 6
7.75000000000000022204e-01  7.50000000000000000000e-01  4.59227535176225054592e-01  1.58382641657350831110e-06 6
7.81250000000000000000e-01  7.50000000000000000000e-01  4.48583161763846050007e-01  6.31407472140299574903e-07 6
7.87499999999999977796e-01  7.50000000000000000000e-01  4.37765851002432482275e-01  3.21253887991534980983e-07 6
7.93749999999999955591e-01  7.50000000000000000000e-01  4.26779773173395438057e-01  1.27379259073912010081e-06 6
8.00000000000000044409e-01  7.50000000000000000000e-01  4.15629163616561825290e-01  2.22583910830520537161e-06 6
8.06250000000000022204e-01  7.50000000000000000000e-01  4.04318321106392819519e-01  3.17702862423496767974e-06 6
8.12500000000000000000e-01  7.50000000000000000000e-01  3.92851606186137736199e-01  4.12699258667270640899e-06 6
8.18749999999999977796e-01  7.50000000000000000000e-01  3.81233439493323000846e-01  5.07536541199948842973e-06 6
8.24999999999999955591e-01  7.50000000000000000000e-01  3.69468300053120202175e-01  6.02178223457761063742e-06 6
8.31250000000000044409e-01  7.50000000000000000000e-01  3.57560723549650127939e-01  6.96587709919649356038e-06 6
8.37500000000000022204e-01  7.50000000000000000000e-01  3.45515300580972573030e-01  7.90728668609297358216e-06 6
8.43750000000000000000e-01  7.50000000000000000000e-01  3.33336674886392902994e-01  8.84564751946204097521e-06 6
8.49999999999999977796e-01  7.50000000000000000000e-01  3.21029541558645936661e-01  9.78059854278567897268e-06 6
8.56249999999999955591e-01  7.50000000000000000000e-01  3.08598645231568380343e-01  1.07117789758248704857e-05 6
8.62500000000000044409e-01  7.50000000000000000000e-01  2.96048778251977617870e-01  1.16388294821301307991e-05 6
8.68750000000000022204e-01  7.50000000000000000000e-01  2.83384778832980466223e-01  1.25613931533097300530e-05 6
8.75000000000000000000e-01  7.50000000000000000000e-01  2.70611529187542221297e-01  1.34791144436041676613e-05 6
8.81249999999999977796e-01  7.50000000000000000000e-01  2.57733953645865543347e-01  1.43916388680720430671e-05 6
8.87499999999999955591e-01  7.50000000000000000000e-01  2.44757016759368561942e-01  1.52986155417256242117e-05 6
8.93750000000000044409e-01  7.50000000000000000000e-01  2.31685721383116993710e-01  1.61996936774155830818e-05 6
9.00000000000000022204e-01  7.50000000000000000000e-01  2.18525106751450148845e-01  1.70945270395461701440e-05 6
9.06250000000000000000e-01  7.50000000000000000000e-01  2.05280246530821636197e-01  1.79827696429046834936e-05 6
9.12499999999999977796e-01  7.50000000000000000000e-01  1.91956246868000418582e-01  1.88640800790895735162e-05 6
9.18749999999999955591e-01  7.50000000000000000000e-01  1.78558244417639566670e-01  1.97381177357847104048e-05 6
9.25000000000000044409e-01  7.50000000000000000000e-01  1.65091404365123983755e-01  2.06045460522108481172e-05 6
9.31250000000000022204e-01  7.50000000000000000000e-01  1.51560918433567975994e-01  2.14630309248176054382e-05 6
9.37500000000000000000e-01  7.50000000000000000000e-01  1.37972002882953859171e-01  2.23132414821081148659e-05 6
9.43749999999999977796e-01  7.50000000000000000000e-01  1.24329896498541717098e-01  2.31548495908812101973e-05 6
9.49999999999999955591e-01  7.50000000000000000000e-01  1.10639858572611923804e-01  2.39875313746834573081e-05 6
9.56250000000000044409e-01  7.50000000000000000000e-01  9.69071668748038850261e-02  2.48109652360162247220e-05 6
9.62500000000000022204e-01  7.50000000000000000000e-01  8.31371156197091704110e-02  2.56248342537651607742e-05 6
9.68750000000000000000e-01  7.50000000000000000000e-01  6.93350134237769311074e-02  2.64288242310395382617e-05 6
9.74999999999999977796e-01  7.50000000000000000000e-01  5.55061812603767426588e-02  2.72226254530091860140e-05 6
9.81249999999999955591e-01  7.50000000000000000000e-01  4.16559504074809558438e-02  2.80059318231024034773e-05 6
9.87500000000000044409e-01  7.50000000000000000000e-01  2.77896603927416212254e-02  2.87784413697950158806e-05 6
9.93750000000000022204e-01  7.50000000000000000000e-01  1.38976996430262358939e-02  1.45825643846075880816e-05 6
1.00000000000000000000e+00  7.50000000000000000000e-01  0.00000000000000000000e+00  8.65956056235493409077e-17 6
0.00000000000000000000e+00  7.56249999999999977796e-01  0.00000000000000000000e+00  0.00000000000000000000e+00 6
6.25000000000000034694e-03  7.56249999999999977796e-01  1.35915099722783202368e-02  1.63541522906832104134e-05 6
1.25000000000000006939e-02  7.56249999999999977796e-01  2.71781686325002838633e-02  3.23135259801682339642e-05 6
1.87499999999999993061e-02  7.56249999999999977796e-01  4.07695976670042273260e-02  3.30123665403664334761e-05 6
2.50000000000000013878e-02  7.56249999999999977796e-01  5.43453092455235958758e-02  3.36984802040210529306e-05 6
3.12500000000000000000e-02  7.56249999999999977796e-01  6.79000696728170455296e-02  3.43716024635842831714e-05 6
3.74999999999999986122e-02  7.56249999999999977796e-01  8.14286533307140708571e-02  3.50314738167406547475e-05 6
4.37499999999999972244e-02  7.56249999999999977796e-01  9.49258446926913163066e-02  3.56778398653834205589e-05 6
5.00000000000000027756e-02  7.56249999999999977796e-01  1.08386440334537301200e-01  3.63104514337908579336e-05 6
5.62500000000000013878e-02  7.56249999999999977796e-01  1.21805250940407575055e-01  3.69290646284742285488e-05 6
6.25000000000000000000e-02  7.56249999999999977796e-01  1.35177103303372236898e-01  3.75334409648819811167e-05 6
6.87500000000000055511e-02  7.56249999999999977796e-01  1.48496842319797123233e-01  3.81233474478770428817e-05 6
7.49999999999999972244e-02  7.56249999999999977796e-01  1.61759332976744746313e-01  3.86985566510344991542e-05 6
8.12500000000000027756e-02  7.56249999999999977796e-01  1.74959462331591986128e-01  3.92588468321186656596e-05 6
8.74999999999999944489e-02  7.56249999999999977796e-01  1.88092141483223118659e-01  3.98040019621015428442e-05 6
9.37500000000000000000e-02  7.56249999999999977796e-01  2.01152307533791818717e-01  4.03338119146223750278e-05 6
1.00000000000000005551e-01  7.56249999999999977796e-01  2.14134925540728077165e-01  4.08480723838033910056e-05 6
1.06249999999999997224e-01  7.56249999999999977796e-01  2.27034990457549601395e-01  4.13465852176220227676e-05 6
1.12500000000000002776e-01  7.56249999999999977796e-01  2.39847529063863917909e-01  4.18291580329965828611e-05 6
1.18749999999999994449e-01  7.56249999999999977796e-01  2.52567601881901915295e-01  4.22956050273870509670e-05 6
1.25000000000000000000e-01  7.56249999999999977796e-01  2.65190305081614507987e-01  4.27457462167657453733e-05 6
1.31250000000000005551e-01  7.56249999999999977796e-01  2.77710772370615699423e-01  4.31794080814618119746e-05 6
1.37500000000000011102e-01  7.56249999999999977796e-01  2.90124176870371619508e-01  4.35964234926089488908e-05 6
1.43749999999999988898e-01  7.56249999999999977796e-01  3.02425732977185279804e-01  4.39966316449491579021e-05 6
1.49999999999999994449e-01  7.56249999999999977796e-01  3.14610698206970462731e-01  4.43798782871485109069e-05 6
1.56250000000000000000e-01  7.56249999999999977796e-01  3.26674375023774332671e-01  4.47460155755807775790e-05 6
1.62500000000000005551e-01  7.56249999999999977796e-01  3.38612112650434948780e-01  4.50949024637381512548e-05 6
1.68750000000000011102e-01  7.56249999999999977796e-01  3.50419308861856015902e-01  4.54264044451035964300e-05 6
1.74999999999999988898e-01  7.56249999999999977796e-01  3.62091411759212167265e-01  4.57403936450218040477e-05 6
1.81249999999999994449e-01  7.56249999999999977796e-01  3.73623921524710411735e-01  4.60367489520385753110e-05 6
1.87500000000000000000e-01  7.56249999999999977796e-01  3.85012392155984317643e-01  4.63153564360663239086e-05 6
1.93750000000000005551e-01  7.56249999999999977796e-01  3.96252433181267793572e-01  4.65761082368842949109e-05 6
2.00000000000000011102e-01  7.56249999999999977796e-01  4.07339711350406918910e-01  4.68189042044375725027e-05 6
2.06249999999999988898e-01  7.56249999999999977796e-01  4.18269952306715098178e-01  4.70436506326277203982e-05 6
2.12499999999999994449e-01  7.56249999999999977796e-01  4.29038942234483688942e-01  4.72502606307378947292e-05 6
2.18750000000000000000e-01  7.56249999999999977796e-01  4.39642529482619726089e-01  4.74386550254335404020e-05 6
2.25000000000000005551e-01  7.56249999999999977796e-01  4.50076626166842908017e-01  4.76087607347297492311e-05 6
2.31250000000000011102e-01  7.56249999999999977796e-01  4.60337209744132003220e-01  4.77605123069824166748e-05 6
2.37499999999999988898e-01  7.56249999999999977796e-01  4.70420324563828706754e-01  4.78938516091376165207e-05 6
2.43749999999999994449e-01  7.56249999999999977796e-01  4.80322083393931897888e-01  4.80087265337658664066e-05 6
2.50000000000000000000e-01  7.56249999999999977796e-01  4.90038668917296416083e-01  4.81050934217908121582e-05 6
2.56249999999999977796e-01  7.56249999999999977796e-01  4.99566335205531397712e-01  4.81829148299972587211e-05 6
2.62500000000000011102e-01  7.56249999999999977796e-01  5.08901409161965023742e-01  4.82421607070904201464e-05 6
2.68749999999999988898e-01  7.56249999999999977796e-01  5.18040291937623242902e-01  4.82828084750197561448e-05 6
2.75000000000000022204e-01  7.56249999999999977796e-01  5.26979460319456971540e-01  4.83048422360576878987e-05 6
2.81250000000000000000e-01  7.56249999999999977796e-01  5.35715468087991086854e-01  4.83082533945244918527e-05 6
2.87499999999999977796e-01  7.56249999999999977796e-01  5.44244947345473129019e-01  4.82930410957704836505e-05 6
2.93750000000000011102e-01  7.56249999999999977796e-01  5.52564609815878404753e-01  4.82592106092472050705e-05 6
2.99999999999999988898e-01  7.56249999999999977796e-01  5.60671248110344855320e-01  4.82067755850357215763e-05 6
3.06250000000000022204e-01  7.56249999999999977796e-01  5.68561736966028963280e-01  4.81357557017281223466e-05 6
3.12500000000000000000e-01  7.56249999999999977796e-01  5.76233034448929704041e-01  4.80461786837027560182e-05 6
3.18749999999999977796e-01  7.56249999999999977796e-01  5.83682183128099274505e-01  4.79380788031003035599e-05 6
3.25000000000000011102e-01  7.56249999999999977796e-01  5.90906311214494106565e-01  4.78114981611321709920e-05 6
3.31249999999999988898e-01  7.56249999999999977796e-01  5.97902633669745164902e-01  4.76664850310726251337e-05 6
3.37500000000000022204e-01  7.56249999999999977796e-01  6.04668453278169315546e-01  4.75030955140454125285e-05 6
3.43750000000000000000e-01  7.56249999999999977796e-01  6.11201161687085603447e-01  4.73213930282101458147e-05 6
3.49999999999999977796e-01  7.56249999999999977796e-01  6.17498240413793975101e-01  4.71214468761305127487e-05 6
3.56250000000000011102e-01  7.56249999999999977796e-01  6.23557261814313590342e-01  4.69033344021596576567e-05 6
3.62499999999999988898e-01  7.56249999999999977796e-01  6.29375890019835959599e-01  4.66671404125706956734e-05 6
3.68750000000000022204e-01  7.56249999999999977796e-01  6.34951881839957543718e-01  4.64129544323066411948e-05 6
3.75000000000000000000e-01  7.56249999999999977796e-01  6.40283087621901336739e-01  4.61408762414405870800e-05 6
3.81249999999999977796e-01  7.56249999999999977796e-01  6.45367452085461312805e-01  4.58510096241759868008e-05 6
3.87500000000000011102e-01  7.56249999999999977796e-01  6.50203015111440407736e-01  4.55434662408604751249e-05 6
3.93749999999999988898e-01  7.56249999999999977796e-01  6.54787912497649116084e-01  4.52183652487336829040e-05 6
4.00000000000000022204e-01  7.56249999999999977796e-01  6.59120376679114716723e-01  4.48758317337372147904e-05 6
4.06250000000000000000e-01  7.56249999999999977796e-01  6.63198737408516980629e-01  4.45159976549813762858e-05 6
4.12499999999999977796e-01  7.56249999999999977796e-01  6.67021422399949548421e-01  4.41390019451093351677e-05 6
4.18750000000000011102e-01  7.56249999999999977796e-01  6.70586957936140204417e-01  4.37449893833097291918e-05 6
4.24999999999999988898e-01  7.56249999999999977796e-01  6.73893969434013917486e-01  4.33341131216291586270e-05 6
4.31250000000000022204e-01  7.56249999999999977796e-01  6.76941181979673456404e-01  4.29065295736164031837e-05 6
4.37500000000000000000e-01  7.56249999999999977796e-01  6.79727420812419658169e-01  4.24624058372735646572e-05 6
4.43749999999999977796e-01  7.56249999999999977796e-01  6.82251611785580691638e-01  4.20019116941228176643e-05 6
4.50000000000000011102e-01  7.56249999999999977796e-01  6.84512781775795109418e-01  4.15252243646246910203e-05 6
4.56249999999999988898e-01  7.56249999999999977796e-01  6.86510059057285904061e-01  4.10325293230817678136e-05 6
4.62500000000000022204e-01  7.56249999999999977796e-01  6.88242673643306046571e-01  4.05240148481089690335e-05 6
4.68750000000000000000e-01  7.56249999999999977796e-01  6.89709957577490317959e-01  3.99998774420762259751e-05 6
4.74999999999999977796e-01  7.56249999999999977796e-01  6.90911345193195525205e-01  3.94603199256327030753e-05 6
4.81250000000000011102e-01  7.56249999999999977796e-01  6.91846373333660391580e-01  3.89055492742151898256e-05 6
4.87499999999999988898e-01  7.56249999999999977796e-01  6.92514681527339304168e-01  3.83357797608674388812e-05 6
4.93750000000000022204e-01  7.56249999999999977796e-01  6.92916012128580893759e-01  3.77512311636740705012e-05 6
5.00000000000000000000e-01  7.56249999999999977796e-01  6.93050210416689682624e-01  3.71521289461718140501e-05 6
5.06249999999999977796e-01  7.56249999999999977796e-01  6.92917224655951180523e-01  3.65387037933873060069e-05 6
5.12499999999999955591e-01  7.56249999999999977796e-01  6.92517106115288494372e-01  3.59111918116772343978e-05 6
5.18750000000000044409e-01  7.56249999999999977796e-01  6.91850009046671599044e-01  3.52698362630077255631e-05 6
5.25000000000000022204e-01  7.56249999999999977796e-01  6.90916190630713633603e-01  3.46148824075243055631e-05 6
5.31250000000000000000e-01  7.56249999999999977796e-01  6.89716010870040197034e-01  3.39465848923081736643e-05 6
5.37499999999999977796e-01  7.56249999999999977796e-01  6.88249932458116719936e-01  3.32652000374356049406e-05 6
5.43749999999999955591e-01  7.56249999999999977796e-01  6.86518520596310022341e-01  3.25709902989634869641e-05 6
5.50000000000000044409e-01  7.56249999999999977796e-01  6.84522442775776118751e-01  3.18642243835043359468e-05 6
5.56250000000000022204e-01  7.56249999999999977796e-01  6.82262468523402776377e-01  3.11451738720380788550e-05 6
5.62500000000000000000e-01  7.56249999999999977796e-01  6.79739469101697468822e-01  3.04141165594629114821e-05 6
5.68749999999999977796e-01  7.56249999999999977796e-01  6.76954417175487432878e-01  2.96713337596399284735e-05 6
5.74999999999999955591e-01  7.56249999999999977796e-01  6.73908386434646566876e-01  2.89171124890907904614e-05 6
5.81250000000000044409e-01  7.56249999999999977796e-01  6.70602551182842399058e-01  2.81517426811150883736e-05 6
5.87500000000000022204e-01  7.56249999999999977796e-01  6.67038185881905998365e-01  2.73755199886593914016e-05 6
5.93750000000000000000e-01  7.56249999999999977796e-01  6.63216664662420130050e-01  2.65887437518319558194e-05 6
5.99999999999999977796e-01  7.56249999999999977796e-01  6.59139460794081366579e-01  2.57917167671983804667e-05 6
6.06249999999999955591e-01  7.56249999999999977796e-01  6.54808146116348632759e-01  2.49847465493280296300e-05 6
6.12500000000000044409e-01  7.56249999999999977796e-01  6.50224390433219889829e-01  2.41681444612673601569e-05 6
6.18750000000000022204e-01  7.56249999999999977796e-01  6.45389960869839907076e-01  2.33422252455817158534e-05 6
6.25000000000000000000e-01  7.56249999999999977796e-01  6.40306721191641114999e-01  2.25073065016623274914e-05 6
6.31249999999999977796e-01  7.56249999999999977796e-01  6.34976631082794007455e-01  2.16637115958429049556e-05 6
6.37499999999999955591e-01  7.56249999999999977796e-01  6.29401745396171552471e-01  2.08117640770888456814e-05 6