Titile = 'Poisson'  
VARIABLES = X, Y, U, Error, Rank 
zone N= 1771, E = 3200
DATAPACKING=POINT, ZONETYPE=FETRIANGLE
0.00000000000000000000e+00  5.62500000000000000000e-01  0.00000000000000000000e+00  0.00000000000000000000e+00 9
6.25000000000000034694e-03  5.62500000000000000000e-01  1.92552501418867191840e-02  1.18642346139813392725e-06 9
1.25000000000000006939e-02  5.62500000000000000000e-01  3.85030832993567412315e-02  2.36610848053375733002e-06 9
1.87499999999999993061e-02  5.62500000000000000000e-01  5.77360789063333657012e-02  3.53876026159410939087e-06 9
2.50000000000000013878e-02  5.62500000000000000000e-01  7.69468221193853885165e-02  4.70408423290658017635e-06 9
3.12500000000000000000e-02  5.62500000000000000000e-01  9.61279066762929651491e-02  5.86178615791244084221e-06 9
3.74999999999999986122e-02  5.62500000000000000000e-01  1.15271937751307229636e-01  7.01157224400339451620e-06 9
4.37499999999999972244e-02  5.62500000000000000000e-01  1.34371534805997255857e-01  8.15314925495247422305e-06 9
5.00000000000000027756e-02  5.62500000000000000000e-01  1.53419334434592324889e-01  9.28622461984773828192e-06 9
5.62500000000000013878e-02  5.62500000000000000000e-01  1.72407993202717740866e-01  1.04105065429349608053e-05 9
6.25000000000000000000e-02  5.62500000000000000000e-01  1.91330190478431999557e-01  1.15257041128635773219e-05 9
6.87500000000000055511e-02  5.62500000000000000000e-01  2.10178631254466341538e-01  1.26315274183164127919e-05 9
7.49999999999999972244e-02  5.62500000000000000000e-01  2.28946048960598169675e-01  1.37276876501501998717e-05 9
8.12500000000000027756e-02  5.62500000000000000000e-01  2.47625208265042529021e-01  1.48138972230205112623e-05 9
8.74999999999999944489e-02  5.62500000000000000000e-01  2.66208907863815236183e-01  1.58898698806586580190e-05 9
9.37500000000000000000e-02  5.62500000000000000000e-01  2.84689983256969536551e-01  1.69553208095307716974e-05 9
1.00000000000000005551e-01  5.62500000000000000000e-01  3.03061309510639642628e-01  1.80099667566047116907e-05 9
1.06249999999999997224e-01  5.62500000000000000000e-01  3.21315804003837079961e-01  1.90535261391788779406e-05 9
1.12500000000000002776e-01  5.62500000000000000000e-01  3.39446429158924700697e-01  2.00857191651193645043e-05 9
1.18749999999999994449e-01  5.62500000000000000000e-01  3.57446195154734303046e-01  2.11062679430495947486e-05 9
1.25000000000000000000e-01  5.62500000000000000000e-01  3.75308162621257379588e-01  2.21148966078610342834e-05 9
1.31250000000000005551e-01  5.62500000000000000000e-01  3.93025445314899801730e-01  2.31113314316799822734e-05 9
1.37500000000000011102e-01  5.62500000000000000000e-01  4.10591212773238178890e-01  2.40953009511546412114e-05 9
1.43749999999999988898e-01  5.62500000000000000000e-01  4.27998692948288350646e-01  2.50665360762569733311e-05 9
1.49999999999999994449e-01  5.62500000000000000000e-01  4.45241174817230578320e-01  2.60247702235094635626e-05 9
1.56250000000000000000e-01  5.62500000000000000000e-01  4.62312010969622322332e-01  2.69697394316148475468e-05 9
1.62500000000000005551e-01  5.62500000000000000000e-01  4.79204620170078088304e-01  2.79011824874109137795e-05 9
1.68750000000000011102e-01  5.62500000000000000000e-01  4.95912489895439456689e-01  2.88188410481060586221e-05 9
1.74999999999999988898e-01  5.62500000000000000000e-01  5.12429178845457689029e-01  2.97224597596290607271e-05 9
1.81249999999999994449e-01  5.62500000000000000000e-01  5.28748319425995094711e-01  3.06117863976274051652e-05 9
1.87500000000000000000e-01  5.62500000000000000000e-01  5.44863620203846488188e-01  3.14865719720502923451e-05 9
1.93750000000000005551e-01  5.62500000000000000000e-01  5.60768868332157666146e-01  3.23465708721437650297e-05 9
2.00000000000000011102e-01  5.62500000000000000000e-01  5.76457931945576484978e-01  3.31915409803595906624e-05 9
2.06249999999999988898e-01  5.62500000000000000000e-01  5.91924762524170366973e-01  3.40212437990317084768e-05 9
2.12499999999999994449e-01  5.62500000000000000000e-01  6.07163397225203960161e-01  3.48354445848242377792e-05 9
2.18750000000000000000e-01  5.62500000000000000000e-01  6.22167961181900763812e-01  3.56339124665261408609e-05 9
2.25000000000000005551e-01  5.62500000000000000000e-01  6.36932669768274339894e-01  3.64164205756134506942e-05 9
2.31250000000000011102e-01  5.62500000000000000000e-01  6.51451830829179123761e-01  3.71827461667084691044e-05 9
2.37499999999999988898e-01  5.62500000000000000000e-01  6.65719846874695320160e-01  3.79326707526939088666e-05 9
2.43749999999999994449e-01  5.62500000000000000000e-01  6.79731217238039420181e-01  3.86659802175115530076e-05 9
2.50000000000000000000e-01  5.62500000000000000000e-01  6.93480540196126038488e-01  3.93824649476126609215e-05 9
2.56249999999999977796e-01  5.62500000000000000000e-01  7.06962515051999251803e-01  4.00819199500856981899e-05 9
2.62500000000000011102e-01  5.62500000000000000000e-01  7.20171944178300771355e-01  4.07641449818862966481e-05 9
2.68749999999999988898e-01  5.62500000000000000000e-01  7.33103735021019664586e-01  4.14289446618587575699e-05 9
2.75000000000000022204e-01  5.62500000000000000000e-01  7.45752902062719047471e-01  4.20761285966353426602e-05 9
2.81250000000000000000e-01  5.62500000000000000000e-01  7.58114568744507777431e-01  4.27055114925467549369e-05 9
2.87499999999999977796e-01  5.62500000000000000000e-01  7.70183969345991203959e-01  4.33169132844080095879e-05 9
2.93750000000000011102e-01  5.62500000000000000000e-01  7.81956450822517412647e-01  4.39101592341062385572e-05 9
2.99999999999999988898e-01  5.62500000000000000000e-01  7.93427474598949133977e-01  4.44850800623841635684e-05 9
3.06250000000000022204e-01  5.62500000000000000000e-01  8.04592618319342145483e-01  4.50415120437641647300e-05 9
3.12500000000000000000e-01  5.62500000000000000000e-01  8.15447577551787761152e-01  4.55792971293389470588e-05 9
3.18749999999999977796e-01  5.62500000000000000000e-01  8.25988167447814114475e-01  4.60982830469136573015e-05 9
3.25000000000000011102e-01  5.62500000000000000000e-01  8.36210324355676326569e-01  4.65983234084754727178e-05 9
3.31249999999999988898e-01  5.62500000000000000000e-01  8.46110107386920162753e-01  4.70792778171080783522e-05 9
3.37500000000000022204e-01  5.62500000000000000000e-01  8.55683699935629649147e-01  4.75410119625818694544e-05 9
3.43750000000000000000e-01  5.62500000000000000000e-01  8.64927411149744695962e-01  4.79833977281574064477e-05 9
3.49999999999999977796e-01  5.62500000000000000000e-01  8.73837677353915820433e-01  4.84063132801804130168e-05 9
3.56250000000000011102e-01  5.62500000000000000000e-01  8.82411063423320207733e-01  4.88096431633389116200e-05 9
3.62499999999999988898e-01  5.62500000000000000000e-01  8.90644264107914307438e-01  4.91932783976967158424e-05 9
3.68750000000000022204e-01  5.62500000000000000000e-01  8.98534105306633801291e-01  4.95571165592956219825e-05 9
3.75000000000000000000e-01  5.62500000000000000000e-01  9.06077545291012143025e-01  4.99010618756345891711e-05 9
3.81249999999999977796e-01  5.62500000000000000000e-01  9.13271675877788458031e-01  5.02250253004987712302e-05 9
3.87500000000000011102e-01  5.62500000000000000000e-01  9.20113723550015527586e-01  5.05289245994466895695e-05 9
3.93749999999999988898e-01  5.62500000000000000000e-01  9.26601050526252190132e-01  5.08126844322998039161e-05 9
4.00000000000000022204e-01  5.62500000000000000000e-01  9.32731155777448361910e-01  5.10762364133166002489e-05 9
4.06250000000000000000e-01  5.62500000000000000000e-01  9.38501675991072259464e-01  5.13195192037851910527e-05 9
4.12499999999999977796e-01  5.62500000000000000000e-01  9.43910386482186058998e-01  5.15424785618723291236e-05 9
4.18750000000000011102e-01  5.62500000000000000000e-01  9.48955202051046220468e-01  5.17450674224484430397e-05 9
4.24999999999999988898e-01  5.62500000000000000000e-01  9.53634177786945147481e-01  5.19272459569286581882e-05 9
4.31250000000000022204e-01  5.62500000000000000000e-01  9.57945509817967888466e-01  5.20889816325587062806e-05 9
4.37500000000000000000e-01  5.62500000000000000000e-01  9.61887536006377663611e-01  5.22302492657056305347e-05 9
4.43749999999999977796e-01  5.62500000000000000000e-01  9.65458736589346444568e-01  5.23510310876940110347e-05 9
4.50000000000000011102e-01  5.62500000000000000000e-01  9.68657734764818090234e-01  5.24513167854401274326e-05 9
4.56249999999999988898e-01  5.62500000000000000000e-01  9.71483297222246133806e-01  5.25311035508568835439e-05 9
4.62500000000000022204e-01  5.62500000000000000000e-01  9.73934334618004382556e-01  5.25903961363649585792e-05 9
4.68750000000000000000e-01  5.62500000000000000000e-01  9.76009901995322892709e-01  5.26292068798728251977e-05 9
4.74999999999999977796e-01  5.62500000000000000000e-01  9.77709199148523611100e-01  5.26475557631744806031e-05 9
4.81250000000000011102e-01  5.62500000000000000000e-01  9.79031570931486627707e-01  5.26454704319334609863e-05 9
4.87499999999999988898e-01  5.62500000000000000000e-01  9.79976507510170069537e-01  5.26229862370941603444e-05 9
4.93750000000000022204e-01  5.62500000000000000000e-01  9.80543644559119464965e-01  5.25801462625263837936e-05 9
5.00000000000000000000e-01  5.62500000000000000000e-01  9.80732763401875429210e-01  5.25170013550013692338e-05 9
5.06249999999999977796e-01  5.62500000000000000000e-01  9.80543791095236927369e-01  5.24336101450639802124e-05 9
5.12499999999999955591e-01  5.62500000000000000000e-01  9.79976800457341590267e-01  5.23300390655734304346e-05 9
5.18750000000000044409e-01  5.62500000000000000000e-01  9.79032010039541988888e-01  5.22063623765722795156e-05 9
5.25000000000000022204e-01  5.62500000000000000000e-01  9.77709784042114948832e-01  5.20626621718367488256e-05 9
5.31250000000000000000e-01  5.62500000000000000000e-01  9.76010632173804348888e-01  5.18990283985276690260e-05 9
5.37499999999999977796e-01  5.62500000000000000000e-01  9.73935209455276673651e-01  5.17155588640738628214e-05 9
5.43749999999999955591e-01  5.62500000000000000000e-01  9.71484315966559264233e-01  5.15123592377264571951e-05 9
5.50000000000000044409e-01  5.62500000000000000000e-01  9.68658896538545755028e-01  5.12895430576643107656e-05 9
5.56250000000000022204e-01  5.62500000000000000000e-01  9.65460040388701146163e-01  5.10472317329924152318e-05 9
5.62500000000000000000e-01  5.62500000000000000000e-01  9.61888980701111284688e-01  5.07855545320845536139e-05 9
5.68749999999999977796e-01  5.62500000000000000000e-01  9.57947094151008871066e-01  5.05046485915761067531e-05 9
5.74999999999999955591e-01  5.62500000000000000000e-01  9.53635900374007361435e-01  5.02046588948257266338e-05 9
5.81250000000000044409e-01  5.62500000000000000000e-01  9.48957061380205080248e-01  4.98857382635886636990e-05 9
5.87500000000000022204e-01  5.62500000000000000000e-01  9.43912380913398574300e-01  4.95480473493570272581e-05 9
5.93750000000000000000e-01  5.62500000000000000000e-01  9.38503803755669552267e-01  4.91917546064923882909e-05 9
5.99999999999999977796e-01  5.62500000000000000000e-01  9.32733414977573227489e-01  4.88170362885620434668e-05 9
6.06249999999999955591e-01  5.62500000000000000000e-01  9.26603439134279116551e-01  4.84240764053733840910e-05 9
6.12500000000000044409e-01  5.62500000000000000000e-01  9.20116239407906766345e-01  4.80130667080969075755e-05 9
6.18750000000000022204e-01  5.62500000000000000000e-01  9.13274316696418786421e-01  4.75842066702814037171e-05 9
6.25000000000000000000e-01  5.62500000000000000000e-01  9.06080308649455101744e-01  4.71377034326758703742e-05 9
6.31249999999999977796e-01  5.62500000000000000000e-01  8.98536988651397083849e-01  4.66737717960130638062e-05 9
6.37499999999999955591e-01  5.62500000000000000000e-01  8.90647264752143175137e-01  4.61926341689400388191e-05 9
6.43750000000000044409e-01  5.62500000000000000000e-01  8.82414178545958827193e-01  4.56945205246084285022e-05 9
6.50000000000000022204e-01  5.62500000000000000000e-01  8.73840903998816864728e-01  4.51796683792471398533e-05 9
6.56250000000000000000e-01  5.62500000000000000000e-01  8.64930746224751523243e-01  4.46483227214411471095e-05 9
6.62499999999999977796e-01  5.62500000000000000000e-01  8.55687140211605079543e-01  4.41007359873735182987e-05 9
6.68749999999999955591e-01  5.62500000000000000000e-01  8.46113649496739728129e-01  4.35371679977647474402e-05 9
6.75000000000000044409e-01  5.62500000000000000000e-01  8.36213964793184993951e-01  4.29578858999191126600e-05 9
6.81250000000000022204e-01  5.62500000000000000000e-01  8.25991902566722613344e-01  4.23631641385258106425e-05 9
6.87500000000000000000e-01  5.62500000000000000000e-01  8.15451403564562249393e-01  4.17532843550727505999e-05 9
6.93749999999999977796e-01  5.62500000000000000000e-01  8.04596531296016270751e-01  4.11285353696388966682e-05 9
6.99999999999999955591e-01  5.62500000000000000000e-01  7.93431470465921107049e-01  4.04892130904110914003e-05 9
7.06250000000000044409e-01  5.62500000000000000000e-01  7.81960525361307445813e-01  3.98356204440730721217e-05 9
7.12500000000000022204e-01  5.62500000000000000000e-01  7.70188118191943216218e-01  3.91680673323957506682e-05 9
7.18750000000000000000e-01  5.62500000000000000000e-01  7.58118787385471004647e-01  3.84868705294305613052e-05 9
7.24999999999999977796e-01  5.62500000000000000000e-01  7.45757185837692126995e-01  3.77923536235558188423e-05 9
7.31249999999999955591e-01  5.62500000000000000000e-01  7.33108079118744204727e-01  3.70848469376516831630e-05 9
7.37500000000000044409e-01  5.62500000000000000000e-01  7.20176343635851701208e-01  3.63646874308454215452e-05 9
7.43750000000000022204e-01  5.62500000000000000000e-01  7.06966964753303006574e-01  3.56322186465529711086e-05 9
7.50000000000000000000e-01  5.62500000000000000000e-01  6.93485034870486294345e-01  3.48877905874678262421e-05 9
7.56249999999999977796e-01  5.62500000000000000000e-01  6.79735751458593218111e-01  3.41317596637136233539e-05 9
7.62499999999999955591e-01  5.62500000000000000000e-01  6.65724415056885288067e-01  3.33644885630590692926e-05 9
7.68750000000000044409e-01  5.62500000000000000000e-01  6.51456427229182621907e-01  3.25863461629882777970e-05 9
7.75000000000000022204e-01  5.62500000000000000000e-01  6.36937288481386310046e-01  3.17977074637543211111e-05 9
7.81250000000000000000e-01  5.62500000000000000000e-01  6.22172596140940337150e-01  3.09989534269528022037e-05 9
7.87499999999999977796e-01  5.62500000000000000000e-01  6.07168042198859003733e-01  3.01904709300027107588e-05 9
7.93749999999999955591e-01  5.62500000000000000000e-01  5.91929411115356907125e-01  2.93726526126025788699e-05 9
8.00000000000000044409e-01  5.62500000000000000000e-01  5.76462577589787694698e-01  2.85458967692608922562e-05 9
8.06250000000000022204e-01  5.62500000000000000000e-01  5.60773504295770330863e-01  2.77106072594790475705e-05 9
8.12500000000000000000e-01  5.62500000000000000000e-01  5.44868239582463331772e-01  2.68671933552067088158e-05 9
8.18749999999999977796e-01  5.62500000000000000000e-01  5.28752915142752688560e-01  2.60160696402556013140e-05 9
8.24999999999999955591e-01  5.62500000000000000000e-01  5.12433743649343576010e-01  2.51576558738531019799e-05 9
8.31250000000000044409e-01  5.62500000000000000000e-01  4.95917016359639584167e-01  2.42923768479785806562e-05 9
8.37500000000000022204e-01  5.62500000000000000000e-01  4.79209100690276224022e-01  2.34206622892196847374e-05 9
8.43750000000000000000e-01  5.62500000000000000000e-01  4.62316437762380627596e-01  2.25429466735316275106e-05 9
8.49999999999999977796e-01  5.62500000000000000000e-01  4.45245539918324384487e-01  2.16596691298143184667e-05 9
8.56249999999999955591e-01  5.62500000000000000000e-01  4.28002988211097445959e-01  2.07712732676057498793e-05 9
8.62500000000000044409e-01  5.62500000000000000000e-01  4.10595429867160521820e-01  1.98782070286451784114e-05 9
8.68750000000000022204e-01  5.62500000000000000000e-01  3.93029575723765234319e-01  1.89809225664694380953e-05 9
8.75000000000000000000e-01  5.62500000000000000000e-01  3.75312197641829825567e-01  1.80798760355260768051e-05 9
8.81249999999999977796e-01  5.62500000000000000000e-01  3.57450125895170334189e-01  1.71755275070184509900e-05 9
8.87499999999999955591e-01  5.62500000000000000000e-01  3.39450246537356503662e-01  1.62683407336494667561e-05 9
8.93750000000000044409e-01  5.62500000000000000000e-01  3.21319498746964082869e-01  1.53587830120649471155e-05 9
9.00000000000000022204e-01  5.62500000000000000000e-01  3.03064872152352060564e-01  1.44473250442977985131e-05 9
9.06250000000000000000e-01  5.62500000000000000000e-01  2.84693404137026984113e-01  1.35344407521387211091e-05 9
9.12499999999999977796e-01  5.62500000000000000000e-01  2.66212177126643079195e-01  1.26206070530932024099e-05 9
9.18749999999999955591e-01  5.62500000000000000000e-01  2.47628315858525682724e-01  1.17063037400888525497e-05 9
9.25000000000000044409e-01  5.62500000000000000000e-01  2.28948984634928992543e-01  1.07920133194661094223e-05 9
9.31250000000000022204e-01  5.62500000000000000000e-01  2.10181384561154815938e-01  9.87822072981425769456e-06 9
9.37500000000000000000e-01  5.62500000000000000000e-01  1.91332750769255044432e-01  8.96541329017952470792e-06 9
9.43749999999999977796e-01  5.62500000000000000000e-01  1.72410349628864284499e-01  8.05408039661337227244e-06 9
9.49999999999999955591e-01  5.62500000000000000000e-01  1.53421475945815510844e-01  7.14471339677280603553e-06 9
9.56250000000000044409e-01  5.62500000000000000000e-01  1.34373450149843309820e-01  6.23780540892626689242e-06 9
9.62500000000000022204e-01  5.62500000000000000000e-01  1.15273615472484686206e-01  5.33385106644967965650e-06 9
9.68750000000000000000e-01  5.62500000000000000000e-01  9.61293351160289050172e-02  4.43334642219461727564e-06 9
9.74999999999999977796e-01  5.62500000000000000000e-01  7.69479894149815019100e-02  3.53678863691808675895e-06 9
9.81249999999999955591e-01  5.62500000000000000000e-01  5.77369729907200937569e-02  2.64467587531014292068e-06 9
9.87500000000000044409e-01  5.62500000000000000000e-01  3.85036919007220659883e-02  1.75750711510491708367e-06 9
9.93750000000000022204e-01  5.62500000000000000000e-01  1.92555607835061572131e-02  8.75781842189088388650e-07 9
1.00000000000000000000e+00  5.62500000000000000000e-01  0.00000000000000000000e+00  1.20111555429665550461e-16 9
0.00000000000000000000e+00  5.68749999999999977796e-01  0.00000000000000000000e+00  0.00000000000000000000e+00 9
6.25000000000000034694e-03  5.68749999999999977796e-01  1.91763235793362962767e-02  1.19734055227527225185e-06 9
1.25000000000000006939e-02  5.68749999999999977796e-01  3.83452612204678855434e-02  2.38731993384283525117e-06 9
1.87499999999999993061e-02  5.68749999999999977796e-01  5.74994227570378990677e-02  3.56965538379772073796e-06 9
2.50000000000000013878e-02  5.68749999999999977796e-01  7.66314237218929106277e-02  4.74406435425900330216e-06 9
3.12500000000000000000e-02  5.68749999999999977796e-01  9.57338881939408664623e-02  5.91026461403687530805e-06 9
3.74999999999999986122e-02  5.68749999999999977796e-01  1.14799451641711042216e-01  7.06797435542916296924e-06 9
4.37499999999999972244e-02  5.68749999999999977796e-01  1.33820763762526884211e-01  8.21691229713206183760e-06 9
5.00000000000000027756e-02  5.68749999999999977796e-01  1.52790491316189769311e-01  9.35679779054399141103e-06 9
5.62500000000000013878e-02  5.68749999999999977796e-01  1.71701320952089953042e-01  1.04873509206571124963e-05 9
6.25000000000000000000e-02  5.68749999999999977796e-01  1.90545962028641796548e-01  1.16082926145399945028e-05 9
6.87500000000000055511e-02  5.68749999999999977796e-01  2.09317149423967202582e-01  1.27193447468920695087e-05 9
7.49999999999999972244e-02  5.68749999999999977796e-01  2.28007646336745445348e-01  1.38202302397416598723e-05 9
8.12500000000000027756e-02  5.68749999999999977796e-01  2.46610247076128275001e-01  1.49106731794357294518e-05 9
8.74999999999999944489e-02  5.68749999999999977796e-01  2.65117779839680545173e-01  1.59903989128129531139e-05 9
9.37500000000000000000e-02  5.68749999999999977796e-01  2.83523109478235280090e-01  1.70591341646653127384e-05 9
1.00000000000000005551e-01  5.68749999999999977796e-01  3.01819140246632811042e-01  1.81166071397953487576e-05 9
1.06249999999999997224e-01  5.68749999999999977796e-01  3.19998818539254936688e-01  1.91625476383405768388e-05 9
1.12500000000000002776e-01  5.68749999999999977796e-01  3.38055135609316936840e-01  2.01966871671843684055e-05 9
1.18749999999999994449e-01  5.68749999999999977796e-01  3.55981130270868584287e-01  2.12187590479806509336e-05 9
1.25000000000000000000e-01  5.68749999999999977796e-01  3.73769891582445112910e-01  2.22284985383347510890e-05 9
1.31250000000000005551e-01  5.68749999999999977796e-01  3.91414561511359948565e-01  2.32256429407717845947e-05 9
1.37500000000000011102e-01  5.68749999999999977796e-01  4.08908337577588210099e-01  2.42099317229738097978e-05 9
1.43749999999999988898e-01  5.68749999999999977796e-01  4.26244475476238837697e-01  2.51811066308560427274e-05 9
1.49999999999999994449e-01  5.68749999999999977796e-01  4.43416291677587004472e-01  2.61389118146881926918e-05 9
1.56250000000000000000e-01  5.68749999999999977796e-01  4.60417166003685152109e-01  2.70830939438360118743e-05 9
1.62500000000000005551e-01  5.68749999999999977796e-01  4.77240544180543957431e-01  2.80134023280531607725e-05 9
1.68750000000000011102e-01  5.68749999999999977796e-01  4.93879940364903791128e-01  2.89295890407714750836e-05 9
1.74999999999999988898e-01  5.68749999999999977796e-01  5.10328939644624779426e-01  2.98314090398932307835e-05 9
1.81249999999999994449e-01  5.68749999999999977796e-01  5.26581200511722635760e-01  3.07186202975762157052e-05 9
1.87500000000000000000e-01  5.68749999999999977796e-01  5.42630457307118563293e-01  3.15909839156969241003e-05 9
1.93750000000000005551e-01  5.68749999999999977796e-01  5.58470522636130062288e-01  3.24482642576340296614e-05 9
2.00000000000000011102e-01  5.68749999999999977796e-01  5.74095289753794979504e-01  3.32902290739456319102e-05 9
2.06249999999999988898e-01  5.68749999999999977796e-01  5.89498734919108535735e-01  3.41166496210520975296e-05 9
2.12499999999999994449e-01  5.68749999999999977796e-01  6.04674919717244852002e-01  3.49273007946848679239e-05 9
2.18750000000000000000e-01  5.68749999999999977796e-01  6.19617993348889117833e-01  3.57219612567849509333e-05 9
2.25000000000000005551e-01  5.68749999999999977796e-01  6.34322194885798551489e-01  3.65004135538526952587e-05 9
2.31250000000000011102e-01  5.68749999999999977796e-01  6.48781855491699310789e-01  3.72624442519509102567e-05 9
2.37499999999999988898e-01  5.68749999999999977796e-01  6.62991400607692460412e-01  3.80078440566089525987e-05 9
2.43749999999999994449e-01  5.68749999999999977796e-01  6.76945352101307573633e-01  3.87364079394991733807e-05 9
2.50000000000000000000e-01  5.68749999999999977796e-01  6.90638330378379960983e-01  3.94479352634480306961e-05 9
2.56249999999999977796e-01  5.68749999999999977796e-01  7.04065056456937066187e-01  4.01422299101117374676e-05 9
2.62500000000000011102e-01  5.68749999999999977796e-01  7.17220354002305438001e-01  4.08191003966607013353e-05 9
2.68749999999999988898e-01  5.68749999999999977796e-01  7.30099151322635031569e-01  4.14783600001245034150e-05 9
2.75000000000000022204e-01  5.68749999999999977796e-01  7.42696483324081779820e-01  4.21198268816258547531e-05 9
2.81250000000000000000e-01  5.68749999999999977796e-01  7.55007493424901476864e-01  4.27433241995123225365e-05 9
2.87499999999999977796e-01  5.68749999999999977796e-01  7.67027435427692250158e-01  4.33486802411398031154e-05 9
2.93750000000000011102e-01  5.68749999999999977796e-01  7.78751675349112493230e-01  4.39357285200170366579e-05 9
2.99999999999999988898e-01  5.68749999999999977796e-01  7.90175693206301210658e-01  4.45043079077001024757e-05 9
3.06250000000000022204e-01  5.68749999999999977796e-01  8.01295084759374054428e-01  4.50542627403738293879e-05 9
3.12500000000000000000e-01  5.68749999999999977796e-01  8.12105563209293390692e-01  4.55854429263213845047e-05 9
3.18749999999999977796e-01  5.68749999999999977796e-01  8.22602960850443598595e-01  4.60977040721566311277e-05 9
3.25000000000000011102e-01  5.68749999999999977796e-01  8.32783230677330732483e-01  4.65909075676451678305e-05 9
3.31249999999999988898e-01  5.68749999999999977796e-01  8.42642447944712102981e-01  4.70649207073847719585e-05 9
3.37500000000000022204e-01  5.68749999999999977796e-01  8.52176811680613210953e-01  4.75196167896152488197e-05 9
3.43750000000000000000e-01  5.68749999999999977796e-01  8.61382646151621189645e-01  4.79548752179148607411e-05 9
3.49999999999999977796e-01  5.68749999999999977796e-01  8.70256402279905083574e-01  4.83705815932378158095e-05 9
3.56250000000000011102e-01  5.68749999999999977796e-01  8.78794659011387535585e-01  4.87666278233822581001e-05 9
3.62499999999999988898e-01  5.68749999999999977796e-01  8.86994124634587710609e-01  4.91429122020381470293e-05 9
3.68750000000000022204e-01  5.68749999999999977796e-01  8.94851638049577347012e-01  4.94993395117049317378e-05 9
3.75000000000000000000e-01  5.68749999999999977796e-01  9.02364169986598740891e-01  4.98358211039606757708e-05 9
3.81249999999999977796e-01  5.68749999999999977796e-01  9.09528824173856831337e-01  5.01522749846161630671e-05 9
3.87500000000000011102e-01  5.68749999999999977796e-01  9.16342838454025088168e-01  5.04486259068626097246e-05 9
3.93749999999999988898e-01  5.68749999999999977796e-01  9.22803585849068186420e-01  5.07248054411046922496e-05 9
4.00000000000000022204e-01  5.68749999999999977796e-01  9.28908575572942818432e-01  5.09807520515659362559e-05 9
4.06250000000000000000e-01  5.68749999999999977796e-01  9.34655453991785067913e-01  5.12164111775570418672e-05 9
4.12499999999999977796e-01  5.68749999999999977796e-01  9.40042005531236180005e-01  5.14317352993121090776e-05 9
4.18750000000000011102e-01  5.68749999999999977796e-01  9.45066153530532471194e-01  5.16266840129286919137e-05 9
4.24999999999999988898e-01  5.68749999999999977796e-01  9.49725961043061062128e-01  5.18012240821041913819e-05 9
4.31250000000000022204e-01  5.68749999999999977796e-01  9.54019631583019056542e-01  5.19553295217356492230e-05 9
4.37500000000000000000e-01  5.68749999999999977796e-01  9.57945509817968887667e-01  5.20889816315595055585e-05 9
4.43749999999999977796e-01  5.68749999999999977796e-01  9.61502082206928232466e-01  5.22021690766427681751e-05 9
4.50000000000000011102e-01  5.68749999999999977796e-01  9.64687977583835065687e-01  5.22948879247975284557e-05 9
4.56249999999999988898e-01  5.68749999999999977796e-01  9.67501967686103636623e-01  5.23671417025362018194e-05 9
4.62500000000000022204e-01  5.68749999999999977796e-01  9.69942967628091734511e-01  5.24189414458087199478e-05 9
4.68750000000000000000e-01  5.68749999999999977796e-01  9.72010036319306824915e-01  5.24503057330871769182e-05 9
4.74999999999999977796e-01  5.68749999999999977796e-01  9.73702376827153770478e-01  5.24612607393226682007e-05 9
4.81250000000000011102e-01  5.68749999999999977796e-01  9.75019336684125215164e-01  5.24518402673646022549e-05 9
4.87499999999999988898e-01  5.68749999999999977796e-01  9.75960408139294299801e-01  5.24220857814894358739e-05 9
4.93750000000000022204e-01  5.68749999999999977796e-01  9.76525228354012897469e-01  5.23720464407073649227e-05 9
5.00000000000000000000e-01  5.68749999999999977796e-01  9.76713579541739096435e-01  5.23017791334012827065e-05 9
5.06249999999999977796e-01  5.68749999999999977796e-01  9.76525389051957959374e-01  5.22113484956454598773e-05 9
5.12499999999999955591e-01  5.68749999999999977796e-01  9.75960729398142934343e-01  5.21008269328548934141e-05 9
5.18750000000000044409e-01  5.68749999999999977796e-01  9.75019818229738710613e-01  5.19702946538691534784e-05 9
5.25000000000000022204e-01  5.68749999999999977796e-01  9.73703018248227358811e-01  5.18198396657343351990e-05 9
5.31250000000000000000e-01  5.68749999999999977796e-01  9.72010837067232347231e-01  5.16495578076758832253e-05 9
5.37499999999999977796e-01  5.68749999999999977796e-01  9.69943927016784890327e-01  5.14595527526529039619e-05 9
5.43749999999999955591e-01  5.68749999999999977796e-01  9.67503084891788711630e-01  5.12499360174611950924e-05 9
5.50000000000000044409e-01  5.68749999999999977796e-01  9.64689251644800238594e-01  5.10208269595135988084e-05 9
5.56250000000000022204e-01  5.68749999999999977796e-01  9.61503512023208717352e-01  5.07723527961578824375e-05 9
5.62500000000000000000e-01  5.68749999999999977796e-01  9.57947094151008426977e-01  5.05046485920201959630e-05 9
5.68749999999999977796e-01  5.68749999999999977796e-01  9.54021369055284118588e-01  5.02178572566736036720e-05 9
5.74999999999999955591e-01  5.68749999999999977796e-01  9.49727850137603857306e-01  4.99121295394200359397e-05 9
5.81250000000000044409e-01  5.68749999999999977796e-01  9.45068192590522770935e-01  4.95876240226289510815e-05 9
5.87500000000000022204e-01  5.68749999999999977796e-01  9.40044192759433849815e-01  4.92445071016422986077e-05 9
5.93750000000000000000e-01  5.68749999999999977796e-01  9.34657787449978072480e-01  4.88829529845524746179e-05 9
5.99999999999999977796e-01  5.68749999999999977796e-01  9.28911053181333046247e-01  4.85031436614491440196e-05 9
6.06249999999999955591e-01  5.68749999999999977796e-01  9.22806205385625744064e-01  4.81052688836580699672e-05 9
6.12500000000000044409e-01  5.68749999999999977796e-01  9.16345597553776869404e-01  4.76895261549703519677e-05 9
6.18750000000000022204e-01  5.68749999999999977796e-01  9.09531720328151327415e-01  4.72561206902311070621e-05 9
6.25000000000000000000e-01  5.68749999999999977796e-01  9.02367200542307013045e-01  4.68052653956885222897e-05 9
6.31249999999999977796e-01  5.68749999999999977796e-01  8.94854800208260248162e-01  4.63371808288037811963e-05 9
6.37499999999999955591e-01  5.68749999999999977796e-01  8.86997415451610371484e-01  4.58520951795993170208e-05 9