Titile = 'Poisson'  
VARIABLES = X, Y, U, Error, Rank 
zone N= 966, E = 1600
DATAPACKING=POINT, ZONETYPE=FETRIANGLE
0.00000000000000000000e+00  6.87500000000000000000e-01  0.00000000000000000000e+00  0.00000000000000000000e+00 22
6.25000000000000034694e-03  6.87500000000000000000e-01  1.63119014335673939708e-02  1.29172247386281913162e-05 22
1.25000000000000006939e-02  6.87500000000000000000e-01  3.26178137198609024994e-02  2.55300684012388368060e-05 22
1.87499999999999993061e-02  6.87500000000000000000e-01  4.89229030869224520983e-02  2.63812008709715661858e-05 22
2.50000000000000013878e-02  6.87500000000000000000e-01  6.52091317435572054295e-02  2.72221628823260397567e-05 22
3.12500000000000000000e-02  6.87500000000000000000e-01  8.14702210385930825076e-02  2.80526302308681252384e-05 22
3.74999999999999986122e-02  6.87500000000000000000e-01  9.76999020125567524397e-02  2.88722827617021726709e-05 22
4.37499999999999972244e-02  6.87500000000000000000e-01  1.13891917814495063910e-01  2.96808044747687294063e-05 22
5.00000000000000027756e-02  6.87500000000000000000e-01  1.30040026114085854880e-01  3.04778836709984624065e-05 22
5.62500000000000013878e-02  6.87500000000000000000e-01  1.46138001508184345312e-01  3.12632130631540494647e-05 22
6.25000000000000000000e-02  6.87500000000000000000e-01  1.62179637920831259956e-01  3.20364898976355227944e-05 22
6.87500000000000055511e-02  6.87500000000000000000e-01  1.78158750995840831077e-01  3.27974160438115891480e-05 22
7.49999999999999972244e-02  6.87500000000000000000e-01  1.94069180480921449350e-01  3.35456981748749605288e-05 22
8.12500000000000027756e-02  6.87500000000000000000e-01  2.09904792602649437061e-01  3.42810478022315123781e-05 22
8.74999999999999944489e-02  6.87500000000000000000e-01  2.25659482431134678082e-01  3.50031814071449787207e-05 22
9.37500000000000000000e-02  6.87500000000000000000e-01  2.41327176233463142063e-01  3.57118206741890986677e-05 22
1.00000000000000005551e-01  6.87500000000000000000e-01  2.56901833815565250330e-01  3.64066922701189454870e-05 22
1.06249999999999997224e-01  6.87500000000000000000e-01  2.72377450850322555542e-01  3.70875284521066106436e-05 22
1.12500000000000002776e-01  6.87500000000000000000e-01  2.87748061192816373399e-01  3.77540667046982747479e-05 22
1.18749999999999994449e-01  6.87500000000000000000e-01  3.03007739180246982169e-01  3.84060499845073621827e-05 22
1.25000000000000000000e-01  6.87500000000000000000e-01  3.18150601916179387452e-01  3.90432270291896088565e-05 22
1.31250000000000005551e-01  6.87500000000000000000e-01  3.33170811538763211868e-01  3.96653522029000171756e-05 22
1.37500000000000011102e-01  6.87500000000000000000e-01  3.48062577471357492698e-01  4.02721855733423339530e-05 22
1.43749999999999988898e-01  6.87500000000000000000e-01  3.62820158654674040921e-01  4.08634932378970638922e-05 22
1.49999999999999994449e-01  6.87500000000000000000e-01  3.77437865760137991611e-01  4.14390473418291271912e-05 22
1.56250000000000000000e-01  6.87500000000000000000e-01  3.91910063383591300568e-01  4.19986258060056627528e-05 22
1.62500000000000005551e-01  6.87500000000000000000e-01  4.06231172217204228314e-01  4.25420130573117560857e-05 22
1.68750000000000011102e-01  6.87500000000000000000e-01  4.20395671200961384972e-01  4.30689995549182746970e-05 22
1.74999999999999988898e-01  6.87500000000000000000e-01  4.34398099650931734939e-01  4.35793820746654958498e-05 22
1.81249999999999994449e-01  6.87500000000000000000e-01  4.48233059364243346945e-01  4.40729640105441689002e-05 22
1.87500000000000000000e-01  6.87500000000000000000e-01  4.61895216700849597924e-01  4.45495547938823399647e-05 22
1.93750000000000005551e-01  6.87500000000000000000e-01  4.75379304638511579473e-01  4.50089712044632328514e-05 22
2.00000000000000011102e-01  6.87500000000000000000e-01  4.88680124805337567917e-01  4.54510354389592308166e-05 22
2.06249999999999988898e-01  6.87500000000000000000e-01  5.01792549481473115769e-01  4.58755775605279580986e-05 22
2.12499999999999994449e-01  6.87500000000000000000e-01  5.14711523577596197221e-01  4.62824339031442377745e-05 22
2.18750000000000000000e-01  6.87500000000000000000e-01  5.27432066583516268032e-01  4.66714473685847508477e-05 22
2.25000000000000005551e-01  6.87500000000000000000e-01  5.39949274487673491763e-01  4.70424680690806340522e-05 22
2.31250000000000011102e-01  6.87500000000000000000e-01  5.52258321667949081402e-01  4.73953531650028736522e-05 22
2.37499999999999988898e-01  6.87500000000000000000e-01  5.64354462752744923115e-01  4.77299662089425424938e-05 22
2.43749999999999994449e-01  6.87500000000000000000e-01  5.76233034448942027517e-01  4.80461786716013250498e-05 22
2.50000000000000000000e-01  6.87500000000000000000e-01  5.87889457341307375415e-01  4.83438683720471829020e-05 22
2.56249999999999977796e-01  6.87500000000000000000e-01  5.99319237657143344400e-01  4.86229203279231469992e-05 22
2.62500000000000011102e-01  6.87500000000000000000e-01  6.10517968997872917392e-01  4.88832276488437855733e-05 22
2.68749999999999988898e-01  6.87500000000000000000e-01  6.21481334040136279562e-01  4.91246892314611827146e-05 22
2.75000000000000022204e-01  6.87500000000000000000e-01  6.32205106197630928300e-01  4.93472123695992692660e-05 22
2.81250000000000000000e-01  6.87500000000000000000e-01  6.42685151251985109511e-01  4.95507113447146707585e-05 22
2.87499999999999977796e-01  6.87500000000000000000e-01  6.52917428946541811285e-01  4.97351074959517802654e-05 22
2.93750000000000011102e-01  6.87500000000000000000e-01  6.62897994543391710920e-01  4.99003298131128758541e-05 22
2.99999999999999988898e-01  6.87500000000000000000e-01  6.72623000344577781640e-01  5.00463145304275158765e-05 22
3.06250000000000022204e-01  6.87500000000000000000e-01  6.82088697174901503750e-01  5.01730057059779355200e-05 22
3.12500000000000000000e-01  6.87500000000000000000e-01  6.91291435828654710072e-01  5.02803538903195956777e-05 22
3.18749999999999977796e-01  6.87500000000000000000e-01  7.00227668474328379666e-01  5.03683182746517132955e-05 22
3.25000000000000011102e-01  6.87500000000000000000e-01  7.08893950024407026866e-01  5.04368646686570443194e-05 22
3.31249999999999988898e-01  6.87500000000000000000e-01  7.17286939462369876885e-01  5.04859666592416544972e-05 22
3.37500000000000022204e-01  6.87500000000000000000e-01  7.25403401130999880841e-01  5.05156053376420999257e-05 22
3.43750000000000000000e-01  6.87500000000000000000e-01  7.33240205979750814258e-01  5.05257693466099055968e-05 22
3.49999999999999977796e-01  6.87500000000000000000e-01  7.40794332771325780840e-01  5.05164546149572402101e-05 22
3.56250000000000011102e-01  6.87500000000000000000e-01  7.48062869245778916394e-01  5.04876650022634265724e-05 22
3.62499999999999988898e-01  6.87500000000000000000e-01  7.55043013244542926543e-01  5.04394110005801366015e-05 22
3.68750000000000022204e-01  6.87500000000000000000e-01  7.61732073788152885818e-01  5.03717122932734184815e-05 22
3.75000000000000000000e-01  6.87500000000000000000e-01  7.68127472117598575352e-01  5.02845938179508067378e-05 22
3.81249999999999977796e-01  6.87500000000000000000e-01  7.74226742684532176497e-01  5.01780897103065726128e-05 22
3.87500000000000011102e-01  6.87500000000000000000e-01  7.80027534103682196331e-01  5.00522413928727871735e-05 22
3.93749999999999988898e-01  6.87500000000000000000e-01  7.85527610060153036464e-01  4.99070967626691341934e-05 22
4.00000000000000022204e-01  6.87500000000000000000e-01  7.90724850170065995947e-01  4.97427116747939379593e-05 22
4.06250000000000000000e-01  6.87500000000000000000e-01  7.95617250797776898175e-01  4.95591501505909803882e-05 22
4.12499999999999977796e-01  6.87500000000000000000e-01  8.00202925829668565427e-01  4.93564830003068166775e-05 22
4.18750000000000011102e-01  6.87500000000000000000e-01  8.04480107401976507475e-01  4.91347871035552330454e-05 22
4.24999999999999988898e-01  6.87500000000000000000e-01  8.08447146578397890515e-01  4.88941493151928696648e-05 22
4.31250000000000022204e-01  6.87500000000000000000e-01  8.12102513989988783472e-01  4.86346622311506493475e-05 22
4.37500000000000000000e-01  6.87500000000000000000e-01  8.15444800424135807226e-01  4.83564247815149172993e-05 22
4.43749999999999977796e-01  6.87500000000000000000e-01  8.18472717364476465285e-01  4.80595455510934854715e-05 22
4.50000000000000011102e-01  6.87500000000000000000e-01  8.21185097491785365165e-01  4.77441385983157218220e-05 22
4.56249999999999988898e-01  6.87500000000000000000e-01  8.23580895132746904075e-01  4.74103246624890672933e-05 22
4.62500000000000022204e-01  6.87500000000000000000e-01  8.25659186660345656428e-01  4.70582338539804467814e-05 22
4.68750000000000000000e-01  6.87500000000000000000e-01  8.27419170854478469579e-01  4.66880010676629098043e-05 22
4.74999999999999977796e-01  6.87500000000000000000e-01  8.28860169208185504353e-01  4.62997685857224894335e-05 22
4.81250000000000011102e-01  6.87500000000000000000e-01  8.29981626187770493708e-01  4.58936874792037485804e-05 22
4.87499999999999988898e-01  6.87500000000000000000e-01  8.30783109451654344646e-01  4.54699128656921303104e-05 22
4.93750000000000022204e-01  6.87500000000000000000e-01  8.31264310011951779167e-01  4.50286089485052443138e-05 22
5.00000000000000000000e-01  6.87500000000000000000e-01  8.31425042356664700804e-01  4.45699458807569115493e-05 22
5.06249999999999977796e-01  6.87500000000000000000e-01  8.31265244520774548853e-01  4.40941001257355580378e-05 22
5.12499999999999955591e-01  6.87500000000000000000e-01  8.30784978109601612850e-01  4.36012549184239261990e-05 22
5.18750000000000044409e-01  6.87500000000000000000e-01  8.29984428274465835251e-01  4.30916007838622050485e-05 22
5.25000000000000022204e-01  6.87500000000000000000e-01  8.28863903642352739531e-01  4.25653344184873105860e-05 22
5.31250000000000000000e-01  6.87500000000000000000e-01  8.27423836197921924729e-01  4.20226576243187821547e-05 22
5.37499999999999977796e-01  6.87500000000000000000e-01  8.25664781113217616237e-01  4.14637809820206371114e-05 22
5.43749999999999955591e-01  6.87500000000000000000e-01  8.23587416538927530318e-01  4.08889184818628237394e-05 22
5.50000000000000044409e-01  6.87500000000000000000e-01  8.21192543336822344813e-01  4.02982935612250514623e-05 22
5.56250000000000022204e-01  6.87500000000000000000e-01  8.18481084778255318923e-01  3.96921317722398470096e-05 22
5.62500000000000000000e-01  6.87500000000000000000e-01  8.15454086180363968417e-01  3.90706685533537267929e-05 22
5.68749999999999977796e-01  6.87500000000000000000e-01  8.12112714509347410896e-01  3.84341428725232248098e-05 22
5.74999999999999955591e-01  6.87500000000000000000e-01  8.08458257928110768376e-01  3.77827996024260315266e-05 22
5.81250000000000044409e-01  6.87500000000000000000e-01  8.04492125297988858179e-01  3.71168910912045291184e-05 22
5.87500000000000022204e-01  6.87500000000000000000e-01  8.00215845639917433552e-01  3.64366727514386923303e-05 22
5.93750000000000000000e-01  6.87500000000000000000e-01  7.95631067540516045966e-01  3.57424074114431888916e-05 22
5.99999999999999977796e-01  6.87500000000000000000e-01  7.90739558518789409369e-01  3.50343629514915377854e-05 22
6.06249999999999955591e-01  6.87500000000000000000e-01  7.85543204345106826914e-01  3.43128118089897071741e-05 22
6.12500000000000044409e-01  6.87500000000000000000e-01  7.80044008312318237763e-01  3.35780327567203329409e-05 22
6.18750000000000022204e-01  6.87500000000000000000e-01  7.74244090466027379271e-01  3.28303082152148206774e-05 22
6.25000000000000000000e-01  6.87500000000000000000e-01  7.68145686783644365825e-01  3.20699277721603337454e-05 22
6.31249999999999977796e-01  6.87500000000000000000e-01  7.61751148317561743717e-01  3.12971828844155197658e-05 22
6.37499999999999955591e-01  6.87500000000000000000e-01  7.55062940282681505089e-01  3.05123728621126133476e-05 22
6.43750000000000044409e-01  6.87500000000000000000e-01  7.48083641111072950025e-01  2.97157997081187730259e-05 22
6.50000000000000022204e-01  6.87500000000000000000e-01  7.40815941455808091298e-01  2.89077701327578040491e-05 22
6.56250000000000000000e-01  6.87500000000000000000e-01  7.33262643152169379945e-01  2.80885969280442182594e-05 22
6.62499999999999977796e-01  6.87500000000000000000e-01  7.25426658142563574039e-01  2.72585937741709471993e-05 22
6.68749999999999955591e-01  6.87500000000000000000e-01  7.17311007345633244725e-01  2.64180833959848371251e-05 22
6.75000000000000044409e-01  6.87500000000000000000e-01  7.08918819502135422184e-01  2.55673869403727493932e-05 22
6.81250000000000022204e-01  6.87500000000000000000e-01  7.00253329957848169585e-01  2.47068347548617950338e-05 22
6.87500000000000000000e-01  6.87500000000000000000e-01  6.91317879425575654295e-01  2.38367569695974168553e-05 22
6.93749999999999977796e-01  6.87500000000000000000e-01  6.82115912690298364929e-01  2.29574903091167570324e-05 22
6.99999999999999955591e-01  6.87500000000000000000e-01  6.72650977286812112865e-01  2.20693722960962901425e-05 22
7.06250000000000044409e-01  6.87500000000000000000e-01  6.62926722126159329029e-01  2.11727470454947663825e-05 22
7.12500000000000022204e-01  6.87500000000000000000e-01  6.52946896095409345939e-01  2.02679586284171264765e-05 22
7.18750000000000000000e-01  6.87500000000000000000e-01  6.42715346606593240786e-01  1.93553567366944179184e-05 22
7.24999999999999977796e-01  6.87500000000000000000e-01  6.32236018117201425959e-01  1.84352927991016102283e-05 22
7.31249999999999955591e-01  6.87500000000000000000e-01  6.21512950607758130062e-01  1.75081216098327274722e-05 22
7.37500000000000044409e-01  6.87500000000000000000e-01  6.10550278023902381896e-01  1.65742016192682584119e-05 22
7.43750000000000022204e-01  6.87500000000000000000e-01  5.99352226686765909847e-01  1.56338907055797449175e-05 22
7.50000000000000000000e-01  6.87500000000000000000e-01  5.87923113655881790507e-01  1.46875537977431136483e-05 22
7.56249999999999977796e-01  6.87500000000000000000e-01  5.76267345073836811942e-01  1.37355537768169000401e-05 22
7.62499999999999955591e-01  6.87500000000000000000e-01  5.64389414460297222931e-01  1.27782586568647715808e-05 22
7.68750000000000044409e-01  6.87500000000000000000e-01  5.52293900984387575726e-01  1.18160367262865051430e-05 22
7.75000000000000022204e-01  6.87500000000000000000e-01  5.39985467694931053906e-01  1.08492608116295130571e-05 22
7.81250000000000000000e-01  6.87500000000000000000e-01  5.27468859729951167203e-01  9.87830093368557982103e-06 22
7.87499999999999977796e-01  6.87500000000000000000e-01  5.14748902477630387864e-01  8.90353386917563938141e-06 22
7.93749999999999955591e-01  6.87500000000000000000e-01  5.01830499725426371072e-01  7.92533360738367775866e-06 22
8.00000000000000044409e-01  6.87500000000000000000e-01  4.88718631762377564431e-01  6.94407839901822754314e-06 22
8.06250000000000022204e-01  6.87500000000000000000e-01  4.75418353464223009119e-01  5.96014549303358620591e-06 22
8.12500000000000000000e-01  6.87500000000000000000e-01  4.61934792340162936330e-01  4.97391548054393339839e-06 22
8.18749999999999977796e-01  6.87500000000000000000e-01  4.48273146560395685523e-01  3.98576785837212455021e-06 22
8.24999999999999955591e-01  6.87500000000000000000e-01  4.34438682950002430516e-01  2.99608300408094052614e-06 22
8.31250000000000044409e-01  6.87500000000000000000e-01  4.20436734956284974274e-01  2.00524423132897311461e-06 22
8.37500000000000022204e-01  6.87500000000000000000e-01  4.06272700598866332022e-01  1.01363139515253664058e-06 22
8.43750000000000000000e-01  6.87500000000000000000e-01  3.91952040381392863289e-01  2.16280046094752265162e-08 22
8.49999999999999977796e-01  6.87500000000000000000e-01  3.77480275190792746720e-01  9.70383312870470859934e-07 22
8.56249999999999955591e-01  6.87500000000000000000e-01  3.62862984168674185259e-01  1.96202076185869600522e-06 22
8.62500000000000044409e-01  6.87500000000000000000e-01  3.48105802559131927154e-01  2.95290220125865587875e-06 22
8.68750000000000022204e-01  6.87500000000000000000e-01  3.33214419535548866946e-01  3.94264458258852812378e-06 22
8.75000000000000000000e-01  6.87500000000000000000e-01  3.18194576010471186223e-01  4.93086726249813978029e-06 22
8.81249999999999977796e-01  6.87500000000000000000e-01  3.03052062419475798372e-01  5.91718924430884030130e-06 22
8.87499999999999955591e-01  6.87500000000000000000e-01  2.87792716489396971369e-01  6.90122987562213907609e-06 22
8.93750000000000044409e-01  6.87500000000000000000e-01  2.72422420988394531349e-01  7.88260962003572984713e-06 22
9.00000000000000022204e-01  6.87500000000000000000e-01  2.56947101458885274194e-01  8.86095104979389702748e-06 22
9.06250000000000000000e-01  6.87500000000000000000e-01  2.41372723929976884527e-01  9.83587583949785404513e-06 22
9.12499999999999977796e-01  6.87500000000000000000e-01  2.25705292621779490814e-01  1.08070092373901971428e-05 22
9.18749999999999955591e-01  6.87500000000000000000e-01  2.09950847626327430362e-01  1.17739758755674994717e-05 22
9.25000000000000044409e-01  6.87500000000000000000e-01  1.94115462582963083094e-01  1.27364038666477608075e-05 22
9.31250000000000022204e-01  6.87500000000000000000e-01  1.78205242333174751490e-01  1.36939212901365792163e-05 22
9.37500000000000000000e-01  6.87500000000000000000e-01  1.62226320570560383905e-01  1.46461598311831142638e-05 22
9.43749999999999977796e-01  6.87500000000000000000e-01  1.46184857472931334366e-01  1.55927516836407153988e-05 22
9.49999999999999955591e-01  6.87500000000000000000e-01  1.30087037330186339190e-01  1.65333324293748251677e-05 22
9.56250000000000044409e-01  6.87500000000000000000e-01  1.13939066158112403682e-01  1.74675391425432868786e-05 22
9.62500000000000022204e-01  6.87500000000000000000e-01  9.77471693072549108194e-02  1.83950119365394737514e-05 22
9.68750000000000000000e-01  6.87500000000000000000e-01  8.15175890618042575664e-02  1.93153929801265222821e-05 22
9.74999999999999977796e-01  6.87500000000000000000e-01  6.52565822340083062647e-02  2.02283275686637731283e-05 22
9.81249999999999955591e-01  6.87500000000000000000e-01  4.89704177516303920670e-02  2.11334638365867633070e-05 22
9.87500000000000044409e-01  6.87500000000000000000e-01  3.26653742409475020270e-02  2.20304526854439575168e-05 22
9.93750000000000022204e-01  6.87500000000000000000e-01  1.63359857378171866027e-02  1.11670795109701515013e-05 22
1.00000000000000000000e+00  6.87500000000000000000e-01  0.00000000000000000000e+00  1.01825659929460304324e-16 22
0.00000000000000000000e+00  6.93749999999999977796e-01  0.00000000000000000000e+00  0.00000000000000000000e+00 22
6.25000000000000034694e-03  6.93749999999999977796e-01  1.60942525361691887720e-02  1.32571002662631998170e-05 22
1.25000000000000006939e-02  6.93749999999999977796e-01  3.21826085727169308726e-02  2.62009485686651166780e-05 22
1.87499999999999993061e-02  6.93749999999999977796e-01  4.82706525203317818318e-02  2.70397766107821624360e-05 22
2.50000000000000013878e-02  6.93749999999999977796e-01  6.43400872125220318898e-02  2.78681803084213086663e-05 22
3.12500000000000000000e-02  6.93749999999999977796e-01  8.03847175763226923229e-02  2.86858402916700949703e-05 22
3.74999999999999986122e-02  6.93749999999999977796e-01  9.63983581013070772725e-02  2.94924413349745284663e-05 22
4.37499999999999972244e-02  6.93749999999999977796e-01  1.12374835224219427054e-01  3.02876724780493100653e-05 22
5.00000000000000027756e-02  6.93749999999999977796e-01  1.28307989708991015965e-01  3.10712271558988284426e-05 22
5.62500000000000013878e-02  6.93749999999999977796e-01  1.44191679021283852835e-01  3.18428032758943935221e-05 22
6.25000000000000000000e-02  6.93749999999999977796e-01  1.60019779696495056953e-01  3.26021033938694859700e-05 22
6.87500000000000055511e-02  6.93749999999999977796e-01  1.75786189700509604128e-01  3.33488347883104108149e-05 22
7.49999999999999972244e-02  6.93749999999999977796e-01  1.91484830782176346231e-01  3.40827095472173713375e-05 22
8.12500000000000027756e-02  6.93749999999999977796e-01  2.07109650816467233403e-01  3.48034448017786601781e-05 22
8.74999999999999944489e-02  6.93749999999999977796e-01  2.22654626137883421277e-01  3.55107626383299734840e-05 22
9.37500000000000000000e-02  6.93749999999999977796e-01  2.38113763862496580215e-01  3.62043904021669415982e-05 22
1.00000000000000005551e-01  6.93749999999999977796e-01  2.53481104198389872728e-01  3.68840607324893987595e-05 22
1.06249999999999997224e-01  6.93749999999999977796e-01  2.68750722743450742858e-01  3.75495114858237499789e-05 22
1.12500000000000002776e-01  6.93749999999999977796e-01  2.83916732768938917530e-01  3.82004862389262456190e-05 22
1.18749999999999994449e-01  6.93749999999999977796e-01  2.98973287489354866420e-01  3.88367339650419474140e-05 22
1.25000000000000000000e-01  6.93749999999999977796e-01  3.13914582316248913507e-01  3.94580093690533040274e-05 22
1.31250000000000005551e-01  6.93749999999999977796e-01  3.28734857096014687627e-01  4.00640729673051865234e-05 22
1.37500000000000011102e-01  6.93749999999999977796e-01  3.43428398330572370867e-01  4.06546911463356863692e-05 22
1.43749999999999988898e-01  6.93749999999999977796e-01  3.57989541380158315942e-01  4.12296361247954656903e-05 22
1.49999999999999994449e-01  6.93749999999999977796e-01  3.72412672646881881544e-01  4.17886863116057050149e-05 22
1.56250000000000000000e-01  6.93749999999999977796e-01  3.86692231739138025937e-01  4.23316261271011740064e-05 22
1.62500000000000005551e-01  6.93749999999999977796e-01  4.00822713615033132672e-01  4.28582462972948441404e-05 22
1.68750000000000011102e-01  6.93749999999999977796e-01  4.14798670704765615191e-01  4.33683438525456210755e-05 22
1.74999999999999988898e-01  6.93749999999999977796e-01  4.28614715010902258552e-01  4.38617220711590150017e-05 22
1.81249999999999994449e-01  6.93749999999999977796e-01  4.42265520185458005376e-01  4.43381906510831313994e-05 22
1.87500000000000000000e-01  6.93749999999999977796e-01  4.55745823582809961305e-01  4.47975662776767258322e-05 22
1.93750000000000005551e-01  6.93749999999999977796e-01  4.69050428290003040832e-01  4.52396712390390476344e-05 22
2.00000000000000011102e-01  6.93749999999999977796e-01  4.82174205128007848931e-01  4.56643357453767606557e-05 22
2.06249999999999988898e-01  6.93749999999999977796e-01  4.95112094631440624592e-01  4.60713956705327554175e-05 22
2.12499999999999994449e-01  6.93749999999999977796e-01  5.07859108997650410267e-01  4.64606940485667863072e-05 22
2.18750000000000000000e-01  6.93749999999999977796e-01  5.20410334009500985530e-01  4.68320812452294177319e-05 22
2.25000000000000005551e-01  6.93749999999999977796e-01  5.32760930931397758137e-01  4.71854135124516460564e-05 22
2.31250000000000011102e-01  6.93749999999999977796e-01  5.44906138372702852912e-01  4.75205550543034149769e-05 22
2.37499999999999988898e-01  6.93749999999999977796e-01  5.56841274124811880242e-01  4.78373766084061458059e-05 22
2.43749999999999994449e-01  6.93749999999999977796e-01  5.68561736966113562275e-01  4.81357556171291278702e-05 22
2.50000000000000000000e-01  6.93749999999999977796e-01  5.80063008434472560104e-01  4.84155776505623691719e-05 22
2.56249999999999977796e-01  6.93749999999999977796e-01  5.91340654571121393523e-01  4.86767345115879379591e-05 22
2.62500000000000011102e-01  6.93749999999999977796e-01  6.02390327628917088276e-01  4.89191253969512018784e-05 22
2.68749999999999988898e-01  6.93749999999999977796e-01  6.13207767748117138495e-01  4.91426572987174736795e-05 22
2.75000000000000022204e-01  6.93749999999999977796e-01  6.23788804600052704252e-01  4.93472436248199031184e-05 22
2.81250000000000000000e-01  6.93749999999999977796e-01  6.34129358993440139791e-01  4.95328056611121780861e-05 22
2.87499999999999977796e-01  6.93749999999999977796e-01  6.44225444447734441056e-01  4.96992718547195622136e-05 22
2.93750000000000011102e-01  6.93749999999999977796e-01  6.54073168729808585020e-01  4.98465780266466040871e-05 22
2.99999999999999988898e-01  6.93749999999999977796e-01  6.63668735354479233379e-01  4.99746674000878243760e-05 22
3.06250000000000022204e-01  6.93749999999999977796e-01  6.73008445048092984742e-01  5.00834906536073987127e-05 22
3.12500000000000000000e-01  6.93749999999999977796e-01  6.82088697175017300012e-01  5.01730055900706517491e-05 22
3.18749999999999977796e-01  6.93749999999999977796e-01  6.90905991124914797830e-01  5.02431779915157861183e-05 22
3.25000000000000011102e-01  6.93749999999999977796e-01  6.99456927663205663137e-01  5.02939807227598123518e-05 22
3.31249999999999988898e-01  6.93749999999999977796e-01  7.07738210241183773874e-01  5.03253940942194333275e-05 22
3.37500000000000022204e-01  6.93749999999999977796e-01  7.15746646266674946268e-01  5.03374060946137902306e-05 22
3.43750000000000000000e-01  6.93749999999999977796e-01  7.23479148335152699723e-01  5.03300120838767739428e-05 22
3.49999999999999977796e-01  6.93749999999999977796e-01  7.30932735419895340812e-01  5.03032148920778965362e-05 22
3.56250000000000011102e-01  6.93749999999999977796e-01  7.38104534021202240979e-01  5.02570248441802647221e-05 22
3.62499999999999988898e-01  6.93749999999999977796e-01  7.44991779273914134230e-01  5.01914600240516151075e-05 22
3.68750000000000022204e-01  6.93749999999999977796e-01  7.51591816014944402724e-01  5.01065446454340701621e-05 22
3.75000000000000000000e-01  6.93749999999999977796e-01  7.57902099802718498545e-01  5.00023132179450158219e-05 22
3.81249999999999977796e-01  6.93749999999999977796e-01  7.63920197904089381957e-01  4.98788045499853893716e-05 22
3.87500000000000011102e-01  6.93749999999999977796e-01  7.69643790227603097343e-01  4.97360663330725927267e-05 22
3.93749999999999988898e-01  6.93749999999999977796e-01  7.75070670218820922948e-01  4.95741542393401957156e-05 22
4.00000000000000022204e-01  6.93749999999999977796e-01  7.80198745712226693350e-01  4.93931306635442268771e-05 22
4.06250000000000000000e-01  6.93749999999999977796e-01  7.85026039738146663716e-01  4.91930643472526796245e-05 22
4.12499999999999977796e-01  6.93749999999999977796e-01  7.89550691281645455888e-01  4.89740336163668743552e-05 22
4.18750000000000011102e-01  6.93749999999999977796e-01  7.93770956003652328192e-01  4.87361226816362957948e-05 22
4.24999999999999988898e-01  6.93749999999999977796e-01  7.97685206912585598182e-01  4.84794224571150067504e-05 22
4.31250000000000022204e-01  6.93749999999999977796e-01  8.01291934989310949966e-01  4.82040328034782916689e-05 22
4.37500000000000000000e-01  6.93749999999999977796e-01  8.04589749771470241768e-01  4.79100599156678796930e-05 22
4.43749999999999977796e-01  6.93749999999999977796e-01  8.07577379889680591063e-01  4.75976161338209635687e-05 22
4.50000000000000011102e-01  6.93749999999999977796e-01  8.10253673554588771388e-01  4.72668229815065288335e-05 22
4.56249999999999988898e-01  6.93749999999999977796e-01  8.12617599004403556862e-01  4.69178076232257268430e-05 22
4.62500000000000022204e-01  6.93749999999999977796e-01  8.14668244900990434765e-01  4.65507044855595353283e-05 22
4.68750000000000000000e-01  6.93749999999999977796e-01  8.16404820681452592090e-01  4.61656549615163669387e-05 22
4.74999999999999977796e-01  6.93749999999999977796e-01  8.17826656862383316593e-01  4.57628078811556093797e-05 22
4.81250000000000011102e-01  6.93749999999999977796e-01  8.18933205299120059451e-01  4.53423182986689710106e-05 22
4.87499999999999988898e-01  6.93749999999999977796e-01  8.19724039395944736874e-01  4.49043485521993801513e-05 22
4.93750000000000022204e-01  6.93749999999999977796e-01  8.20198854271770638746e-01  4.44490669757602319123e-05 22
5.00000000000000000000e-01  6.93749999999999977796e-01  8.20357466875944352225e-01  4.39766495693438841386e-05 22
5.06249999999999977796e-01  6.93749999999999977796e-01  8.20199816060263930950e-01  4.34872784824680280735e-05 22
5.12499999999999955591e-01  6.93749999999999977796e-01  8.19725962602305791016e-01  4.29811421911452384848e-05 22
5.18750000000000044409e-01  6.93749999999999977796e-01  8.18936089181697024486e-01  4.24584357217039354282e-05 22
5.25000000000000022204e-01  6.93749999999999977796e-01  8.17830500309706498463e-01  4.19193605579737393896e-05 22
5.31250000000000000000e-01  6.93749999999999977796e-01  8.16409622210976460011e-01  4.13641254376484468480e-05 22
5.37499999999999977796e-01  6.93749999999999977796e-01  8.14674002662840179845e-01  4.07929426358144553433e-05 22
5.43749999999999955591e-01  6.93749999999999977796e-01  8.12624310777623870550e-01  4.02060344029120386722e-05 22
5.50000000000000044409e-01  6.93749999999999977796e-01  8.10261336752654437454e-01  3.96036249157294406587e-05 22
5.56250000000000022204e-01  6.93749999999999977796e-01  8.07585991557094984294e-01  3.89859487194277321009e-05 22
5.62500000000000000000e-01  6.93749999999999977796e-01  8.04599306589996898786e-01  3.83532413890108614396e-05 22
5.68749999999999977796e-01  6.93749999999999977796e-01  8.01302433272738867664e-01  3.77057493755605932506e-05 22
5.74999999999999955591e-01  6.93749999999999977796e-01  7.97696642615165818491e-01  3.70437198770057207753e-05 22
5.81250000000000044409e-01  6.93749999999999977796e-01  7.93783324716237359553e-01  3.63674100966049351769e-05 22
5.87500000000000022204e-01  6.93749999999999977796e-01  7.89563988235677083338e-01  3.56770795847394239786e-05 22
5.93750000000000000000e-01  6.93749999999999977796e-01  7.85040259806909279661e-01  3.49729955846367346339e-05 22
5.99999999999999977796e-01  6.93749999999999977796e-01  7.80213883415039943792e-01  3.42554278502937847861e-05 22
6.06249999999999955591e-01  6.93749999999999977796e-01  7.75086719717990035861e-01  3.35246550703383050518e-05 22
6.12500000000000044409e-01  6.93749999999999977796e-01  7.69660745337233276331e-01  3.27809567027825821128e-05 22
6.18750000000000022204e-01  6.93749999999999977796e-01  7.63938052086800989393e-01  3.20246218384889758113e-05 22
6.25000000000000000000e-01  6.93749999999999977796e-01  7.57920846176118434556e-01  3.12559398180090042274e-05 22