Titile = 'Poisson'  
VARIABLES = X, Y, U, Error, Rank 
zone N= 6601, E = 12800
DATAPACKING=POINT, ZONETYPE=FETRIANGLE
0.00000000000000000000e+00  2.50000000000000000000e-01  0.00000000000000000000e+00  0.00000000000000000000e+00 1
6.25000000000000034694e-03  2.50000000000000000000e-01  1.38976996430117353404e-02  1.45825643702735679996e-05 1
1.25000000000000006939e-02  2.50000000000000000000e-01  2.77896603927609425755e-02  2.87784413890469770170e-05 1
1.87499999999999993061e-02  2.50000000000000000000e-01  4.16559504074878114710e-02  2.80059318302910975618e-05 1
2.50000000000000013878e-02  2.50000000000000000000e-01  5.55061812603751952855e-02  2.72226254515589571881e-05 1
3.12500000000000000000e-02  2.50000000000000000000e-01  6.93350134237794013536e-02  2.64288242336763179452e-05 1
3.74999999999999986122e-02  2.50000000000000000000e-01  8.31371156196538396710e-02  2.56248341983789096332e-05 1
4.37499999999999972244e-02  2.50000000000000000000e-01  9.69071668748734404986e-02  2.48109653055994527904e-05 1
5.00000000000000027756e-02  2.50000000000000000000e-01  1.10639858572545851656e-01  2.39875313087084540697e-05 1
5.62500000000000013878e-02  2.50000000000000000000e-01  1.24329896498615782852e-01  2.31548496651273749691e-05 1
6.25000000000000000000e-02  2.50000000000000000000e-01  1.37972002882858768569e-01  2.23132413872950685629e-05 1
6.87500000000000055511e-02  2.50000000000000000000e-01  1.51560918433572361375e-01  2.14630309292029863855e-05 1
7.49999999999999972244e-02  2.50000000000000000000e-01  1.65091404365131394494e-01  2.06045460597326091090e-05 1
8.12500000000000027756e-02  2.50000000000000000000e-01  1.78558244417654443659e-01  1.97381177508559879641e-05 1
8.74999999999999944489e-02  2.50000000000000000000e-01  1.91956246867941993095e-01  1.88640800209138870258e-05 1
9.37500000000000000000e-02  2.50000000000000000000e-01  2.05280246531003268684e-01  1.79827698246204370491e-05 1
1.00000000000000005551e-01  2.50000000000000000000e-01  2.18525106751346120948e-01  1.70945269356292950391e-05 1
1.06249999999999997224e-01  2.50000000000000000000e-01  2.31685721383212195335e-01  1.61996937725339407166e-05 1
1.12500000000000002776e-01  2.50000000000000000000e-01  2.44757016759149653717e-01  1.52986153230671995118e-05 1
1.18749999999999994449e-01  2.50000000000000000000e-01  2.57733953645966740176e-01  1.43916389693243829129e-05 1
1.25000000000000000000e-01  2.50000000000000000000e-01  2.70611529187461452572e-01  1.34791143630019760735e-05 1
1.31250000000000005551e-01  2.50000000000000000000e-01  2.83384778833131401043e-01  1.25613933044665948557e-05 1
1.37500000000000011102e-01  2.50000000000000000000e-01  2.96048778252084143769e-01  1.16388295885450077094e-05 1
1.43749999999999988898e-01  2.50000000000000000000e-01  3.08598645231478951878e-01  1.07117788867849839107e-05 1
1.49999999999999994449e-01  2.50000000000000000000e-01  3.21029541558662756540e-01  9.78059855971658009821e-06 1
1.56250000000000000000e-01  2.50000000000000000000e-01  3.33336674886538952833e-01  8.84564766573392446958e-06 1
1.62500000000000005551e-01  2.50000000000000000000e-01  3.45515300580871653757e-01  7.90728658517370064374e-06 1
1.68750000000000011102e-01  2.50000000000000000000e-01  3.57560723549646963804e-01  6.96587709608786909143e-06 1
1.74999999999999988898e-01  2.50000000000000000000e-01  3.69468300053019060858e-01  6.02178213354731539653e-06 1
1.81249999999999994449e-01  2.50000000000000000000e-01  3.81233439493566195200e-01  5.07536565541588657879e-06 1
1.87500000000000000000e-01  2.50000000000000000000e-01  3.92851606186093049722e-01  4.12699254204174081906e-06 1
1.93750000000000005551e-01  2.50000000000000000000e-01  4.04318321106146016941e-01  3.17702837748790045680e-06 1
2.00000000000000011102e-01  2.50000000000000000000e-01  4.15629163616862196129e-01  2.22583940878706698641e-06 1
2.06249999999999988898e-01  2.50000000000000000000e-01  4.26779773173140253295e-01  1.27379233566538019318e-06 1
2.12499999999999994449e-01  2.50000000000000000000e-01  4.37765851002762329536e-01  3.21254218060840202043e-07 1
2.18750000000000000000e-01  2.50000000000000000000e-01  4.48583161763528637245e-01  6.31407789442040012773e-07 1
2.25000000000000005551e-01  2.50000000000000000000e-01  4.59227535176278123252e-01  1.58382636333831428033e-06 1
2.31250000000000011102e-01  2.50000000000000000000e-01  4.69694867632427459636e-01  2.53563433594283793582e-06 1
2.37499999999999988898e-01  2.50000000000000000000e-01  4.79981123776046958440e-01  3.48646478010028459948e-06 1
2.43749999999999994449e-01  2.50000000000000000000e-01  4.90082338059628419558e-01  4.43595108978733776439e-06 1
2.50000000000000000000e-01  2.50000000000000000000e-01  4.99994616272663450207e-01  5.38372733643877054988e-06 1
2.56249999999999977796e-01  2.50000000000000000000e-01  5.09714137043405957073e-01  6.32942794054347501742e-06 1
2.62500000000000011102e-01  2.50000000000000000000e-01  5.19237153311312593651e-01  7.27268858313756538791e-06 1
2.68749999999999988898e-01  2.50000000000000000000e-01  5.28559993772703684556e-01  8.21314524868110851230e-06 1
2.75000000000000022204e-01  2.50000000000000000000e-01  5.37679064294666719803e-01  9.15043581972696529192e-06 1
2.81250000000000000000e-01  2.50000000000000000000e-01  5.46590849302364900630e-01  1.00841985137822831575e-05 1
2.87499999999999977796e-01  2.50000000000000000000e-01  5.55291913132597625413e-01  1.10140737842323588325e-05 1
2.93750000000000011102e-01  2.50000000000000000000e-01  5.63778901360082240757e-01  1.19397026903111935781e-05 1
2.99999999999999988898e-01  2.50000000000000000000e-01  5.72048542088888889445e-01  1.28607287953608206976e-05 1
3.06250000000000022204e-01  2.50000000000000000000e-01  5.80097647215307654633e-01  1.37767968154678399628e-05 1
3.12500000000000000000e-01  2.50000000000000000000e-01  5.87923113656202200872e-01  1.46875534771107041365e-05 1
3.18749999999999977796e-01  2.50000000000000000000e-01  5.95521924544962111270e-01  1.55926479993295785675e-05 1
3.25000000000000011102e-01  2.50000000000000000000e-01  6.02891150395759689573e-01  1.64917310312429066244e-05 1
3.31249999999999988898e-01  2.50000000000000000000e-01  6.10027950231257332092e-01  1.73844564513858657051e-05 1
3.37500000000000022204e-01  2.50000000000000000000e-01  6.16929572679777216138e-01  1.82704795834709443625e-05 1
3.43750000000000000000e-01  2.50000000000000000000e-01  6.23593357033985329352e-01  1.91494593502206100766e-05 1
3.49999999999999977796e-01  2.50000000000000000000e-01  6.30016734278669221503e-01  2.00210563812142083862e-05 1
3.56250000000000011102e-01  2.50000000000000000000e-01  6.36197228079133259016e-01  2.08849351525097759463e-05 1
3.62499999999999988898e-01  2.50000000000000000000e-01  6.42132455737793428341e-01  2.17407621950771456909e-05 1
3.68750000000000022204e-01  2.50000000000000000000e-01  6.47820129111173703684e-01  2.25882078028760702182e-05 1
3.75000000000000000000e-01  2.50000000000000000000e-01  6.53258055492870082226e-01  2.34269453180946385373e-05 1
3.81249999999999977796e-01  2.50000000000000000000e-01  6.58444138459008621034e-01  2.42566511297059861363e-05 1
3.87500000000000011102e-01  2.50000000000000000000e-01  6.63376378675465061541e-01  2.50770057895755016375e-05 1
3.93749999999999988898e-01  2.50000000000000000000e-01  6.68052874670267859969e-01  2.58876925137707658564e-05 1
4.00000000000000022204e-01  2.50000000000000000000e-01  6.72471823564660842187e-01  2.66883992964261906877e-05 1
4.06250000000000000000e-01  2.50000000000000000000e-01  6.76631521770184152231e-01  2.74788169921658109729e-05 1
4.12499999999999977796e-01  2.50000000000000000000e-01  6.80530365643668866404e-01  2.82586412071461623441e-05 1
4.18750000000000011102e-01  2.50000000000000000000e-01  6.84166852106798284439e-01  2.90275710898013628025e-05 1
4.24999999999999988898e-01  2.50000000000000000000e-01  6.87539579224683450320e-01  2.97853103370382399362e-05 1
4.31250000000000022204e-01  2.50000000000000000000e-01  6.90647246746927234717e-01  3.05315667161742965163e-05 1
4.37500000000000000000e-01  2.50000000000000000000e-01  6.93488656608413966964e-01  3.12660526596841847891e-05 1
4.43749999999999977796e-01  2.50000000000000000000e-01  6.96062713391559340081e-01  3.19884850035201395713e-05 1
4.50000000000000011102e-01  2.50000000000000000000e-01  6.98368424748658012113e-01  3.26985850522820697961e-05 1
4.56249999999999988898e-01  2.50000000000000000000e-01  7.00404901783857281039e-01  3.33960792819887331007e-05 1
4.62500000000000022204e-01  2.50000000000000000000e-01  7.02171359396688843368e-01  3.40806986005581791233e-05 1
4.68750000000000000000e-01  2.50000000000000000000e-01  7.03667116583943541563e-01  3.47521792475324886595e-05 1
4.74999999999999977796e-01  2.50000000000000000000e-01  7.04891596702968192822e-01  3.54102621390461891338e-05 1
4.81250000000000011102e-01  2.50000000000000000000e-01  7.05844327693128215095e-01  3.60546938109607140177e-05 1
4.87499999999999988898e-01  2.50000000000000000000e-01  7.06524942258545896046e-01  3.66852257676075765858e-05 1
4.93750000000000022204e-01  2.50000000000000000000e-01  7.06933178009609086700e-01  3.73016146681948157493e-05 1
5.00000000000000000000e-01  2.50000000000000000000e-01  7.07068877563424957877e-01  3.79036231225038378057e-05 1
5.06249999999999977796e-01  2.50000000000000000000e-01  7.06931988604972971757e-01  3.84910193043097592636e-05 1
5.12499999999999955591e-01  2.50000000000000000000e-01  7.06522563908225542662e-01  3.90635760879609605922e-05 1
5.18750000000000044409e-01  2.50000000000000000000e-01  7.05840761313604403426e-01  3.96210733347723831344e-05 1
5.25000000000000022204e-01  2.50000000000000000000e-01  7.04886843669320528605e-01  4.01632957867104067873e-05 1
5.31250000000000000000e-01  2.50000000000000000000e-01  7.03661178728466563115e-01  4.06900347246219595831e-05 1
5.37499999999999977796e-01  2.50000000000000000000e-01  7.02164239008647328433e-01  4.12010866420731147741e-05 1
5.43749999999999955591e-01  2.50000000000000000000e-01  7.00396601608339497425e-01  4.16962547997723476101e-05 1
5.50000000000000044409e-01  2.50000000000000000000e-01  6.98358947985369238332e-01  4.21753483409448293173e-05 1
5.56250000000000022204e-01  2.50000000000000000000e-01  6.96052063694040268338e-01  4.26381825225918831279e-05 1
5.62500000000000000000e-01  2.50000000000000000000e-01  6.93476838082358604254e-01  4.30845787150468950699e-05 1
5.68749999999999977796e-01  2.50000000000000000000e-01  6.90634263948550541912e-01  4.35143650928671021916e-05 1
5.74999999999999955591e-01  2.50000000000000000000e-01  6.87525437159075658577e-01  4.39273759448299827568e-05 1
5.81250000000000044409e-01  2.50000000000000000000e-01  6.84151556226133439331e-01  4.43234517546464701354e-05 1
5.87500000000000022204e-01  2.50000000000000000000e-01  6.80513921844725921950e-01  4.47024401500906165552e-05 1
5.93750000000000000000e-01  2.50000000000000000000e-01  6.76613936392317594226e-01  4.50641948587238161394e-05 1
5.99999999999999977796e-01  2.50000000000000000000e-01  6.72453103387450124018e-01  4.54085765071443603347e-05 1
6.06249999999999955591e-01  2.50000000000000000000e-01  6.68033026910615168603e-01  4.57354521665731539315e-05 1
6.12500000000000044409e-01  2.50000000000000000000e-01  6.63355410985200788510e-01  4.60446960537375105105e-05 1
6.18750000000000022204e-01  2.50000000000000000000e-01  6.58422058921223740668e-01  4.63361889146973737752e-05 1
6.25000000000000000000e-01  2.50000000000000000000e-01  6.53234872620088391493e-01  4.66098180997853717145e-05 1
6.31249999999999977796e-01  2.50000000000000000000e-01  6.47795851840550440670e-01  4.68654784261390844335e-05 1
6.37499999999999955591e-01  2.50000000000000000000e-01  6.42107093428811226410e-01  4.71030711773900989670e-05 1
6.43750000000000044409e-01  2.50000000000000000000e-01  6.36170790509446915095e-01  4.73225048387426738827e-05 1
6.50000000000000022204e-01  2.50000000000000000000e-01  6.29989231640385227706e-01  4.75236946652080050058e-05 1
6.56250000000000000000e-01  2.50000000000000000000e-01  6.23564799929953728075e-01  4.77065633818218870488e-05 1
6.62499999999999977796e-01  2.50000000000000000000e-01  6.16899972119267836490e-01  4.78710400929616142207e-05 1
6.68749999999999955591e-01  2.50000000000000000000e-01  6.09997317625847412792e-01  4.80170618615272104535e-05 1
6.75000000000000044409e-01  2.50000000000000000000e-01  6.02859497554866785585e-01  4.81445719242579173169e-05 1
6.81250000000000022204e-01  2.50000000000000000000e-01  5.95489263671521884547e-01  4.82535214396673239889e-05 1
6.87500000000000000000e-01  2.50000000000000000000e-01  5.87889457341300381010e-01  4.83438683790415879571e-05 1
6.93749999999999977796e-01  2.50000000000000000000e-01  5.80063008434465454677e-01  4.84155776576677965295e-05 1
6.99999999999999955591e-01  2.50000000000000000000e-01  5.72012934195832434270e-01  4.84686218518159961377e-05 1
7.06250000000000044409e-01  2.50000000000000000000e-01  5.63742338082240945774e-01  4.85029805316061768394e-05 1
7.12500000000000022204e-01  2.50000000000000000000e-01  5.55254408565960311250e-01  4.85186404215465216794e-05 1
7.18750000000000000000e-01  2.50000000000000000000e-01  5.46552417905550314003e-01  4.85155953284799323910e-05 1
7.24999999999999977796e-01  2.50000000000000000000e-01  5.37639720883788418959e-01  4.84938466980278093388e-05 1
7.31249999999999955591e-01  2.50000000000000000000e-01  5.28519753515362955554e-01  4.84534025896321551841e-05 1
7.37500000000000044409e-01  2.50000000000000000000e-01  5.19196031720914774610e-01  4.83942789808455842149e-05 1
7.43750000000000022204e-01  2.50000000000000000000e-01  5.09672149973128263412e-01  4.83164982183481583888e-05 1
7.50000000000000000000e-01  2.50000000000000000000e-01  4.99951779909293791970e-01  4.82200907062080297294e-05 1
7.56249999999999977796e-01  2.50000000000000000000e-01  4.90038668917295916483e-01  4.81050934222904125193e-05 1
7.62499999999999955591e-01  2.50000000000000000000e-01  4.79936638690222350245e-01  4.79715506049305240310e-05 1
7.68750000000000044409e-01  2.50000000000000000000e-01  4.69649583752789867575e-01  4.78195139733683660666e-05 1
7.75000000000000022204e-01  2.50000000000000000000e-01  4.59181469960790900053e-01  4.76490418506725355030e-05 1
7.81250000000000000000e-01  2.50000000000000000000e-01  4.48536332971018691929e-01  4.74602002993873561820e-05 1
7.87499999999999977796e-01  2.50000000000000000000e-01  4.37718276686764051764e-01  4.72530617803834651625e-05 1
7.93749999999999955591e-01  2.50000000000000000000e-01  4.26731471674371365399e-01  4.70277064332780270206e-05 1
8.00000000000000044409e-01  2.50000000000000000000e-01  4.15580153556639131374e-01  4.67842208143331994563e-05 1
8.06250000000000022204e-01  2.50000000000000000000e-01  4.04268621378563952629e-01  4.65226992045764120576e-05 1
8.12500000000000000000e-01  2.50000000000000000000e-01  3.92801235951436955585e-01  4.62432421140523963743e-05 1
8.18749999999999977796e-01  2.50000000000000000000e-01  3.81182418170582015815e-01  4.59459573289300315935e-05 1
8.24999999999999955591e-01  2.50000000000000000000e-01  3.69416647311252177577e-01  4.56309596333914768707e-05 1
8.31250000000000044409e-01  2.50000000000000000000e-01  3.57508459302343317709e-01  4.52983702075582250757e-05 1
8.37500000000000022204e-01  2.50000000000000000000e-01  3.45462444976788130013e-01  4.49483174982945321574e-05 1
8.43750000000000000000e-01  2.50000000000000000000e-01  3.33283248302632173488e-01  4.45809362412119547514e-05 1
8.49999999999999977796e-01  2.50000000000000000000e-01  3.20975564591809148229e-01  4.41963682939472413125e-05 1
8.56249999999999955591e-01  2.50000000000000000000e-01  3.08544138690857006058e-01  4.37947617354939033874e-05 1
8.62500000000000044409e-01  2.50000000000000000000e-01  2.95993763151015887303e-01  4.33762714796004367201e-05 1
8.68750000000000022204e-01  2.50000000000000000000e-01  2.83329276381011407882e-01  4.29410588156931005699e-05 1
8.75000000000000000000e-01  2.50000000000000000000e-01  2.70555560781447990149e-01  4.24892916505714701714e-05 1
8.81249999999999977796e-01  2.50000000000000000000e-01  2.57677540863007537020e-01  4.20211439898787730840e-05 1
8.87499999999999955591e-01  2.50000000000000000000e-01  2.44700181347473566529e-01  4.15367963532420336747e-05 1
8.93750000000000044409e-01  2.50000000000000000000e-01  2.31628485253882993034e-01  4.10364355565295824135e-05 1
9.00000000000000022204e-01  2.50000000000000000000e-01  2.18467491970028571124e-01  4.05202543820037952571e-05 1
9.06250000000000000000e-01  2.50000000000000000000e-01  2.05222275309287993661e-01  3.99884518906823416273e-05 1
9.12499999999999977796e-01  2.50000000000000000000e-01  1.91897941554851569901e-01  3.94412330697313517902e-05 1
9.18749999999999955591e-01  2.50000000000000000000e-01  1.78499627490939588581e-01  3.88788089641656231521e-05 1
9.25000000000000044409e-01  2.50000000000000000000e-01  1.65032498422773510338e-01  3.83013962982348132869e-05 1
9.31250000000000022204e-01  2.50000000000000000000e-01  1.51501746184946661788e-01  3.77092176964688441387e-05 1
9.37500000000000000000e-01  2.50000000000000000000e-01  1.37912587139949860404e-01  3.71025015218628961833e-05 1
9.43749999999999977796e-01  2.50000000000000000000e-01  1.24270260167369403503e-01  3.64814815814185067211e-05 1
9.49999999999999955591e-01  2.50000000000000000000e-01  1.10580024643865987288e-01  3.58463973712253025639e-05 1
9.56250000000000044409e-01  2.50000000000000000000e-01  9.68471584159250747925e-02  3.51974936427801310401e-05 1
9.62500000000000022204e-01  2.50000000000000000000e-01  8.30769557648075168688e-02  3.45350206478745036520e-05 1
9.68750000000000000000e-01  2.50000000000000000000e-01  6.92747253657891304268e-02  3.38592337567472645432e-05 1
9.74999999999999977796e-01  2.50000000000000000000e-01  5.54457882414697220130e-02  3.31703934540045208834e-05 1
9.81249999999999955591e-01  2.50000000000000000000e-01  4.15954757102999991836e-02  3.24687653578473178761e-05 1
9.87500000000000044409e-01  2.50000000000000000000e-01  2.77291273314548315787e-02  3.17546199169911613769e-05 1
9.93750000000000022204e-01  2.50000000000000000000e-01  1.38670461381048843591e-02  1.60709405367422120126e-05 1
1.00000000000000000000e+00  2.50000000000000000000e-01  0.00000000000000000000e+00  8.65956056235493162558e-17 1
0.00000000000000000000e+00  2.56249999999999977796e-01  0.00000000000000000000e+00  0.00000000000000000000e+00 1
6.25000000000000034694e-03  2.56249999999999977796e-01  1.41672820483410722564e-02  1.42642215381835746335e-05 1
1.25000000000000006939e-02  2.56249999999999977796e-01  2.83287288294471924222e-02  2.81494336286554347470e-05 1
1.87499999999999993061e-02  2.56249999999999977796e-01  4.24645936044177052526e-02  2.73630516667705547817e-05 1
2.50000000000000013878e-02  2.56249999999999977796e-01  5.65840874702032356480e-02  2.65661207276071675842e-05 1
3.12500000000000000000e-02  2.56249999999999977796e-01  7.06817670931411679014e-02  2.57589480427006245478e-05 1
3.74999999999999986122e-02  2.56249999999999977796e-01  8.47521975493771007049e-02  2.49418447943461352168e-05 1
4.37499999999999972244e-02  2.56249999999999977796e-01  9.87899544201237406194e-02  2.41151259878641388568e-05 1
5.00000000000000027756e-02  2.56249999999999977796e-01  1.12789625882891708653e-01  2.32791103442903102305e-05 1
5.62500000000000013878e-02  2.56249999999999977796e-01  1.26745814797831146681e-01  2.24341201585653848838e-05 1
6.25000000000000000000e-02  2.56249999999999977796e-01  1.40653140788446706644e-01  2.15804811900532911295e-05 1
6.87500000000000055511e-02  2.56249999999999977796e-01  1.54506242315838815404e-01  2.07185225406247841562e-05 1
7.49999999999999972244e-02  2.56249999999999977796e-01  1.68299778745651301692e-01  1.98485765003642011806e-05 1
8.12500000000000027756e-02  2.56249999999999977796e-01  1.82028432407032425555e-01  1.89709784638170120274e-05 1
8.74999999999999944489e-02  2.56249999999999977796e-01  1.95686910642638989266e-01  1.80860667419180387583e-05 1
9.37500000000000000000e-02  2.56249999999999977796e-01  2.09269947849133719497e-01  1.71941825086174837622e-05 1
1.00000000000000005551e-01  2.56249999999999977796e-01  2.22772307507095812529e-01  1.62956695893834435651e-05 1
1.06249999999999997224e-01  2.56249999999999977796e-01  2.36188784199843571088e-01  1.53908743737440900645e-05 1
1.12500000000000002776e-01  2.56249999999999977796e-01  2.49514205620233853189e-01  1.44801456936349826066e-05 1
1.18749999999999994449e-01  2.56249999999999977796e-01  2.62743434564619959826e-01  1.35638346242528129437e-05 1
1.25000000000000000000e-01  2.56249999999999977796e-01  2.75871370913449320827e-01  1.26422944562443184680e-05 1
1.31250000000000005551e-01  2.56249999999999977796e-01  2.88892953597319479542e-01  1.17158804226469293042e-05 1
1.37500000000000011102e-01  2.56249999999999977796e-01  3.01803162548267278620e-01  1.07849497122392001813e-05 1
1.43749999999999988898e-01  2.56249999999999977796e-01  3.14597020634952484475e-01  9.84986118418573752820e-06 1
1.49999999999999994449e-01  2.56249999999999977796e-01  3.27269595581590133637e-01  8.91097538235907649096e-06 1
1.56250000000000000000e-01  2.56249999999999977796e-01  3.39816001869209571851e-01  7.96865416996528352911e-06 1
1.62500000000000005551e-01  2.56249999999999977796e-01  3.52231402619464062376e-01  7.02326093870997425483e-06 1
1.68750000000000011102e-01  2.56249999999999977796e-01  3.64511011458958311682e-01  6.07516008743758106903e-06 1
1.74999999999999988898e-01  2.56249999999999977796e-01  3.76650094364761878207e-01  5.12471715746753986309e-06 1
1.81249999999999994449e-01  2.56249999999999977796e-01  3.88643971489294692834e-01  4.17229852062162009929e-06 1
1.87500000000000000000e-01  2.56249999999999977796e-01  4.00488018964685388301e-01  3.21827142651942565976e-06 1
1.93750000000000005551e-01  2.56249999999999977796e-01  4.12177670685096808612e-01  2.26300359706943510218e-06 1
2.00000000000000011102e-01  2.56249999999999977796e-01  4.23708420067316404722e-01  1.30686335464424985275e-06 1
2.06249999999999988898e-01  2.56249999999999977796e-01  4.35075821787943128882e-01  3.50219293121512009748e-07 1
2.12499999999999994449e-01  2.56249999999999977796e-01  4.46275493497181818814e-01  6.06559826421548820008e-07 1
2.18750000000000000000e-01  2.56249999999999977796e-01  4.57303117508504330946e-01  1.56310503629519814695e-06 1
2.25000000000000005551e-01  2.56249999999999977796e-01  4.68154442462810127523e-01  2.51904769371646963805e-06 1
2.31250000000000011102e-01  2.56249999999999977796e-01  4.78825284967858533225e-01  3.47401917111245239767e-06 1
2.37499999999999988898e-01  2.56249999999999977796e-01  4.89311531210677774784e-01  4.42765136593470387538e-06 1
2.43749999999999994449e-01  2.56249999999999977796e-01  4.99609138543705089130e-01  5.37957665630584003225e-06 1
2.50000000000000000000e-01  2.56249999999999977796e-01  5.09714137043405957073e-01  6.32942794054347501742e-06 1
2.56249999999999977796e-01  2.56249999999999977796e-01  5.19622631040324356455e-01  7.27683920986876842107e-06 1
2.62500000000000011102e-01  2.56249999999999977796e-01  5.29330800621661046179e-01  8.22144496581689310233e-06 1
2.68749999999999988898e-01  2.56249999999999977796e-01  5.38834903102876960901e-01  9.16288140684340390862e-06 1
2.75000000000000022204e-01  2.56249999999999977796e-01  5.48131274471940543869e-01  1.01007851976975260300e-05 1
2.81250000000000000000e-01  2.56249999999999977796e-01  5.57216330800400783119e-01  1.10347950820210982670e-05 1
2.87499999999999977796e-01  2.56249999999999977796e-01  5.66086569626381153064e-01  1.19645507011822971322e-05 1
2.93750000000000011102e-01  2.56249999999999977796e-01  5.74738571303658574152e-01  1.28896939198819282524e-05 1
2.99999999999999988898e-01  2.56249999999999977796e-01  5.83169000321214214821e-01  1.38098677515685608341e-05 1
3.06250000000000022204e-01  2.56249999999999977796e-01  5.91374606587936502144e-01  1.47247176964793169418e-05 1
3.12500000000000000000e-01  2.56249999999999977796e-01  5.99352226686485689555e-01  1.56338909854669694255e-05 1
3.18749999999999977796e-01  2.56249999999999977796e-01  6.07098785092453074874e-01  1.65370371146833505804e-05 1
3.25000000000000011102e-01  2.56249999999999977796e-01  6.14611295360101950180e-01  1.74338079131919343467e-05 1
3.31249999999999988898e-01  2.56249999999999977796e-01  6.21886861273775126691e-01  1.83238576001443220775e-05 1
3.37500000000000022204e-01  2.56249999999999977796e-01  6.28922677964184440036e-01  1.92068431765779479292e-05 1
3.43750000000000000000e-01  2.56249999999999977796e-01  6.35716032990292334581e-01  2.00824240048635971334e-05 1
3.49999999999999977796e-01  2.56249999999999977796e-01  6.42264307384091015507e-01  2.09502628600866103170e-05 1
3.56250000000000011102e-01  2.56249999999999977796e-01  6.48564976661518133305e-01  2.18100248050578926495e-05 1
3.62499999999999988898e-01  2.56249999999999977796e-01  6.54615611794352569852e-01  2.26613786611373768665e-05 1
3.68750000000000022204e-01  2.56249999999999977796e-01  6.60413880147616705329e-01  2.35039961702376842823e-05 1
3.75000000000000000000e-01  2.56249999999999977796e-01  6.65957546378617148974e-01  2.43375523549804739787e-05 1
3.81249999999999977796e-01  2.56249999999999977796e-01  6.71244473298344690448e-01  2.51617260125236441581e-05 1
3.87500000000000011102e-01  2.56249999999999977796e-01  6.76272622695990865971e-01  2.59761992480456171961e-05 1
3.93749999999999988898e-01  2.56249999999999977796e-01  6.81040056123972670221e-01  2.67806583412744103612e-05 1
4.00000000000000022204e-01  2.56249999999999977796e-01  6.85544935646325237499e-01  2.75747927841463180698e-05 1
4.06250000000000000000e-01  2.56249999999999977796e-01  6.89785524545906136851e-01  2.83582967551820885888e-05 1
4.12499999999999977796e-01  2.56249999999999977796e-01  6.93760187995182797671e-01  2.91308679869484166147e-05 1
4.18750000000000011102e-01  2.56249999999999977796e-01  6.97467393685622716326e-01  2.98922087501596323023e-05 1
4.24999999999999988898e-01  2.56249999999999977796e-01  7.00905712418892323790e-01  3.06420255036243815994e-05 1
4.31250000000000022204e-01  2.56249999999999977796e-01  7.04073818657635741580e-01  3.13800292114363443829e-05 1
4.37500000000000000000e-01  2.56249999999999977796e-01  7.06970491036731596424e-01  3.21059352177410772811e-05 1
4.43749999999999977796e-01  2.56249999999999977796e-01  7.09594612833675530972e-01  3.28194638334888821873e-05 1
4.50000000000000011102e-01  2.56249999999999977796e-01  7.11945172399595649360e-01  3.35203399468575469200e-05 1
4.56249999999999988898e-01  2.56249999999999977796e-01  7.14021263549144080685e-01  3.42082932465181954740e-05 1
4.62500000000000022204e-01  2.56249999999999977796e-01  7.15822085909475158694e-01  3.48830587010295900541e-05 1
4.68750000000000000000e-01  2.56249999999999977796e-01  7.17346945229559440627e-01  3.55443759046947249658e-05 1
4.74999999999999977796e-01  2.56249999999999977796e-01  7.18595253646596154873e-01  3.61919904130481029370e-05 1
4.81250000000000011102e-01  2.56249999999999977796e-01  7.19566529914689390068e-01  3.68256517968568175547e-05 1
4.87499999999999988898e-01  2.56249999999999977796e-01  7.20260399587651201081e-01  3.74451164649736156775e-05 1
4.93750000000000022204e-01  2.56249999999999977796e-01  7.20676595165828715039e-01  3.80501452876824686200e-05 1
5.00000000000000000000e-01  2.56249999999999977796e-01  7.20814956197841638641e-01  3.86405050770699531881e-05 1
5.06249999999999977796e-01  2.56249999999999977796e-01  7.20675429343178519659e-01  3.92159679378778491809e-05 1
5.12499999999999955591e-01  2.56249999999999977796e-01  7.20258068391312455958e-01  3.97763128037187385644e-05 1
5.18750000000000044409e-01  2.56249999999999977796e-01  7.19563034243803634205e-01  4.03213226826126813762e-05 1
5.25000000000000022204e-01  2.56249999999999977796e-01  7.18590594848703245745e-01  4.08507883059572307616e-05 1
5.31250000000000000000e-01  2.56249999999999977796e-01  7.17341125100762422306e-01  4.13645047018240674674e-05 1
5.37499999999999977796e-01  2.56249999999999977796e-01  7.15815106693418634620e-01  4.18622747575536635622e-05 1
5.43749999999999955591e-01  2.56249999999999977796e-01  7.14013127936486080571e-01  4.23439059045183086027e-05 1
5.50000000000000044409e-01  2.56249999999999977796e-01  7.11935883527000656912e-01  4.28092125417389723907e-05 1
5.56250000000000022204e-01  2.56249999999999977796e-01  7.09584174281760016179e-01  4.32580157490036754098e-05 1
5.62500000000000000000e-01  2.56249999999999977796e-01  7.06958906830080557882e-01  4.36901418687796194718e-05 1
5.68749999999999977796e-01  2.56249999999999977796e-01  7.04061093262065229581e-01  4.41054247819483435933e-05 1
5.74999999999999955591e-01  2.56249999999999977796e-01  7.00891850740476218817e-01  4.45037039197293537995e-05 1
5.81250000000000044409e-01  2.56249999999999977796e-01  6.97452401067848559713e-01  4.48848265243162458660e-05 1
5.87500000000000022204e-01  2.56249999999999977796e-01  6.93744070218522135285e-01  4.52486446476108028492e-05 1
5.93750000000000000000e-01  2.56249999999999977796e-01  6.89768287823655068536e-01  4.55950190062504034927e-05 1
5.99999999999999977796e-01  2.56249999999999977796e-01  6.85526586623701583711e-01  4.59238154079111282613e-05 1
6.06249999999999955591e-01  2.56249999999999977796e-01  6.81020601875048425811e-01  4.62349072655188209069e-05 1
6.12500000000000044409e-01  2.56249999999999977796e-01  6.76252070720429587780e-01  4.65281748092127855898e-05 1
6.18750000000000022204e-01  2.56249999999999977796e-01  6.71222831519779794540e-01  4.68035045775305746929e-05 1
6.25000000000000000000e-01  2.56249999999999977796e-01  6.65934823139799014768e-01  4.70607911731146799639e-05 1
6.31249999999999977796e-01  2.56249999999999977796e-01  6.60390084209272365534e-01  4.72999345145774796606e-05 1
6.37499999999999955591e-01  2.56249999999999977796e-01  6.54590752329917036079e-01  4.75208430968931949678e-05 1