Titile = 'Poisson'  
VARIABLES = X, Y, U, Error, Rank 
zone N= 1771, E = 3200
DATAPACKING=POINT, ZONETYPE=FETRIANGLE
0.00000000000000000000e+00  3.12500000000000000000e-01  0.00000000000000000000e+00  0.00000000000000000000e+00 5
6.25000000000000034694e-03  3.12500000000000000000e-01  1.63359857378272063655e-02  1.11670795211876727748e-05 5
1.25000000000000006939e-02  3.12500000000000000000e-01  3.26653742409446293249e-02  2.20304526824949276076e-05 5
1.87499999999999993061e-02  3.12500000000000000000e-01  4.89704177516086455735e-02  2.11334638152357867646e-05 5
2.50000000000000013878e-02  3.12500000000000000000e-01  6.52565822340360757181e-02  2.02283275965581266220e-05 5
3.12500000000000000000e-02  3.12500000000000000000e-01  8.15175890617962084495e-02  1.93153929722855721707e-05 5
3.74999999999999986122e-02  3.12500000000000000000e-01  9.77471693072143599235e-02  1.83950118959330666257e-05 5
4.37499999999999972244e-02  3.12500000000000000000e-01  1.13939066158160753894e-01  1.74675391909490107523e-05 5
5.00000000000000027756e-02  3.12500000000000000000e-01  1.30087037330178068029e-01  1.65333324212424415123e-05 5
5.62500000000000013878e-02  3.12500000000000000000e-01  1.46184857472980378468e-01  1.55927517329346176922e-05 5
6.25000000000000000000e-02  3.12500000000000000000e-01  1.62226320570470428084e-01  1.46461597415603606009e-05 5
6.87500000000000055511e-02  3.12500000000000000000e-01  1.78205242333270591493e-01  1.36939213860043373927e-05 5
7.49999999999999972244e-02  3.12500000000000000000e-01  1.94115462582841930006e-01  1.27364037456612066990e-05 5
8.12500000000000027756e-02  3.12500000000000000000e-01  2.09950847626452496986e-01  1.17739760008839233763e-05 5
8.74999999999999944489e-02  3.12500000000000000000e-01  2.25705292621686870458e-01  1.08070091451029082208e-05 5
9.37500000000000000000e-02  3.12500000000000000000e-01  2.41372723930128568748e-01  9.83587599129309708701e-06 5
1.00000000000000005551e-01  3.12500000000000000000e-01  2.56947101458749826985e-01  8.86095091451322147691e-06 5
1.06249999999999997224e-01  3.12500000000000000000e-01  2.72422420988558344757e-01  7.88260978379362597934e-06 5
1.12500000000000002776e-01  3.12500000000000000000e-01  2.87792716489255862022e-01  6.90122973484585955362e-06 5
1.18749999999999994449e-01  3.12500000000000000000e-01  3.03052062419386536440e-01  5.91718915510242027267e-06 5
1.25000000000000000000e-01  3.12500000000000000000e-01  3.18194576010597030002e-01  4.93086738856396422648e-06 5
1.31250000000000005551e-01  3.12500000000000000000e-01  3.33214419535607764278e-01  3.94264464176341533630e-06 5
1.37500000000000011102e-01  3.12500000000000000000e-01  3.48105802558900945254e-01  2.95290197022124445425e-06 5
1.43749999999999988898e-01  3.12500000000000000000e-01  3.62862984168800251084e-01  1.96202088842412081249e-06 5
1.49999999999999994449e-01  3.12500000000000000000e-01  3.77480275190865743884e-01  9.70383386034168182732e-07 5
1.56250000000000000000e-01  3.12500000000000000000e-01  3.91952040381205180086e-01  2.16281920151217832426e-08 5
1.62500000000000005551e-01  3.12500000000000000000e-01  4.06272700598826141949e-01  1.01363143528709898078e-06 5
1.68750000000000011102e-01  3.12500000000000000000e-01  4.20436734956616098291e-01  2.00524390009393371770e-06 5
1.74999999999999988898e-01  3.12500000000000000000e-01  4.34438682949665644362e-01  2.99608334064505044125e-06 5
1.81249999999999994449e-01  3.12500000000000000000e-01  4.48273146560578761299e-01  3.98576767496328088214e-06 5
1.87500000000000000000e-01  3.12500000000000000000e-01  4.61934792340194022575e-01  4.97391544929115525520e-06 5
1.93750000000000005551e-01  3.12500000000000000000e-01  4.75418353463998411002e-01  5.96014571752068178512e-06 5
2.00000000000000011102e-01  3.12500000000000000000e-01  4.88718631762615651759e-01  6.94407816070885530735e-06 5
2.06249999999999988898e-01  3.12500000000000000000e-01  5.01830499725410938971e-01  7.92533362259373319603e-06 5
2.12499999999999994449e-01  3.12500000000000000000e-01  5.14748902477854541893e-01  8.90353364468854380220e-06 5
2.18750000000000000000e-01  3.12500000000000000000e-01  5.27468859729690930926e-01  9.87830119381083449071e-06 5
2.25000000000000005551e-01  3.12500000000000000000e-01  5.39985467695207943528e-01  1.08492605345178461107e-05 5
2.31250000000000011102e-01  3.12500000000000000000e-01  5.52293900983898300439e-01  1.18160372156728143977e-05 5
2.37499999999999988898e-01  3.12500000000000000000e-01  5.64389414460408023189e-01  1.27782585456204245133e-05 5
2.43749999999999994449e-01  3.12500000000000000000e-01  5.76267345073877113037e-01  1.37355537362937596413e-05 5
2.50000000000000000000e-01  3.12500000000000000000e-01  5.87923113656206641764e-01  1.46875534726698120380e-05 5
2.56249999999999977796e-01  3.12500000000000000000e-01  5.99352226686490352492e-01  1.56338909808040327221e-05 5
2.62500000000000011102e-01  3.12500000000000000000e-01  6.10550278024270642874e-01  1.65742012508962588413e-05 5
2.68749999999999988898e-01  3.12500000000000000000e-01  6.21512950607367109512e-01  1.75081220004091875353e-05 5
2.75000000000000022204e-01  3.12500000000000000000e-01  6.32236018117171449937e-01  1.84352928288555872882e-05 5
2.81250000000000000000e-01  3.12500000000000000000e-01  6.42715346606662962792e-01  1.93553566666393450646e-05 5
2.87499999999999977796e-01  3.12500000000000000000e-01  6.52946896095457862685e-01  2.02679585797893579979e-05 5
2.93750000000000011102e-01  3.12500000000000000000e-01  6.62926722126448098038e-01  2.11727467566147353750e-05 5
2.99999999999999988898e-01  3.12500000000000000000e-01  6.72650977286584517145e-01  2.20693725234699655857e-05 5
3.06250000000000022204e-01  3.12500000000000000000e-01  6.82115912690537062879e-01  2.29574900703077844355e-05 5
3.12500000000000000000e-01  3.12500000000000000000e-01  6.91317879425389469894e-01  2.38367571554487511776e-05 5
3.18749999999999977796e-01  3.12500000000000000000e-01  7.00253329957970072073e-01  2.47068346327372623250e-05 5
3.25000000000000011102e-01  3.12500000000000000000e-01  7.08918819501934249772e-01  2.55673871412120945479e-05 5
3.31249999999999988898e-01  3.12500000000000000000e-01  7.17311007345981743732e-01  2.64180830471527627878e-05 5
3.37500000000000022204e-01  3.12500000000000000000e-01  7.25426658142209968005e-01  2.72585941273328913326e-05 5
3.43750000000000000000e-01  3.12500000000000000000e-01  7.33262643152512105793e-01  2.80885965850963259527e-05 5
3.49999999999999977796e-01  3.12500000000000000000e-01  7.40815941455510551528e-01  2.89077704299645077413e-05 5
3.56250000000000011102e-01  3.12500000000000000000e-01  7.48083641111194297402e-01  2.97157995866603741320e-05 5
3.62499999999999988898e-01  3.12500000000000000000e-01  7.55062940282616223975e-01  3.05123729270606602881e-05 5
3.68750000000000022204e-01  3.12500000000000000000e-01  7.61751148317463600002e-01  3.12971829823371905377e-05 5
3.75000000000000000000e-01  3.12500000000000000000e-01  7.68145686783880843329e-01  3.20699275354607848953e-05 5
3.81249999999999977796e-01  3.12500000000000000000e-01  7.74244090465780687715e-01  3.28303084615733098417e-05 5
3.87500000000000011102e-01  3.12500000000000000000e-01  7.80044008312457792798e-01  3.35780326170542764430e-05 5
3.93749999999999988898e-01  3.12500000000000000000e-01  7.85543204344892775914e-01  3.43128120227076394144e-05 5
4.00000000000000022204e-01  3.12500000000000000000e-01  7.90739558518909757545e-01  3.50343628308102950086e-05 5
4.06250000000000000000e-01  3.12500000000000000000e-01  7.95631067540421899054e-01  3.57424075053680567748e-05 5
4.12499999999999977796e-01  3.12500000000000000000e-01  8.00215845639923095689e-01  3.64366727455545102998e-05 5
4.18750000000000011102e-01  3.12500000000000000000e-01  8.04492125298147842116e-01  3.71168909319985473871e-05 5
4.24999999999999988898e-01  3.12500000000000000000e-01  8.08458257927802903531e-01  3.77827999099578093478e-05 5
4.31250000000000022204e-01  3.12500000000000000000e-01  8.12112714509439892474e-01  3.84341427798196022536e-05 5
4.37500000000000000000e-01  3.12500000000000000000e-01  8.15454086180435466780e-01  3.90706684816333194021e-05 5
4.43749999999999977796e-01  3.12500000000000000000e-01  8.18481084778035716809e-01  3.96921319916199166755e-05 5
4.50000000000000011102e-01  3.12500000000000000000e-01  8.21192543337233904488e-01  4.02982931495543539313e-05 5
4.56249999999999988898e-01  3.12500000000000000000e-01  8.23587416538624217388e-01  4.08889187849537094621e-05 5
4.62500000000000022204e-01  3.12500000000000000000e-01  8.25664781113418011493e-01  4.14637807814033365617e-05 5
4.68750000000000000000e-01  3.12500000000000000000e-01  8.27423836197577422524e-01  4.20226579684879197885e-05 5
4.74999999999999977796e-01  3.12500000000000000000e-01  8.28863903642572563690e-01  4.25653341984411071053e-05 5
4.81250000000000011102e-01  3.12500000000000000000e-01  8.29984428274421870420e-01  4.30916008276049922188e-05 5
4.87499999999999988898e-01  3.12500000000000000000e-01  8.30784978109411431646e-01  4.36012551083830857124e-05 5
4.93750000000000022204e-01  3.12500000000000000000e-01  8.31265244521088186858e-01  4.40940998118755089763e-05 5
5.00000000000000000000e-01  3.12500000000000000000e-01  8.31425042356700338964e-01  4.45699458448967078539e-05 5
5.06249999999999977796e-01  3.12500000000000000000e-01  8.31264310011851748072e-01  4.50286090483142942276e-05 5
5.12499999999999955591e-01  3.12500000000000000000e-01  8.30783109451554424574e-01  4.54699129653901579218e-05 5
5.18750000000000044409e-01  3.12500000000000000000e-01  8.29981626188056931248e-01  4.58936871925441636222e-05 5
5.25000000000000022204e-01  3.12500000000000000000e-01  8.28860169207882080400e-01  4.62997688889243974586e-05 5
5.31250000000000000000e-01  3.12500000000000000000e-01  8.27419170854784225000e-01  4.66880007617964665201e-05 5
5.37499999999999977796e-01  3.12500000000000000000e-01  8.25659186660455568507e-01  4.70582337438463227386e-05 5
5.43749999999999955591e-01  3.12500000000000000000e-01  8.23580895132461465735e-01  4.74103249477053623195e-05 5
5.50000000000000044409e-01  3.12500000000000000000e-01  8.21185097491986759621e-01  4.77441383965881982476e-05 5
5.56250000000000022204e-01  3.12500000000000000000e-01  8.18472717364476243240e-01  4.80595455510934854715e-05 5
5.62500000000000000000e-01  3.12500000000000000000e-01  8.15444800423942628420e-01  4.83564249744716789792e-05 5
5.68749999999999977796e-01  3.12500000000000000000e-01  8.12102513990248131570e-01  4.86346619715805061901e-05 5
5.74999999999999955591e-01  3.12500000000000000000e-01  8.08447146578181286003e-01  4.88941495316863594667e-05 5
5.81250000000000044409e-01  3.12500000000000000000e-01  8.04480107401914223964e-01  4.91347871656167001220e-05 5
5.87500000000000022204e-01  3.12500000000000000000e-01  8.00202925829870626018e-01  4.93564827980241815908e-05 5
5.93750000000000000000e-01  3.12500000000000000000e-01  7.95617250797779451688e-01  4.95591501478154228266e-05 5
5.99999999999999977796e-01  3.12500000000000000000e-01  7.90724850169882698125e-01  4.97427118579807370224e-05 5
6.06249999999999955591e-01  3.12500000000000000000e-01  7.85527610060322900587e-01  4.99070965926939891233e-05 5
6.12500000000000044409e-01  3.12500000000000000000e-01  7.80027534103995834336e-01  5.00522410790127381119e-05 5
6.18750000000000022204e-01  3.12500000000000000000e-01  7.74226742684205326839e-01  5.01780900370452087600e-05 5
6.25000000000000000000e-01  3.12500000000000000000e-01  7.68127472117620446745e-01  5.02845937958573685478e-05 5
6.31249999999999977796e-01  3.12500000000000000000e-01  7.61732073788385366520e-01  5.03717120605706725200e-05 5
6.37499999999999955591e-01  3.12500000000000000000e-01  7.55043013244241278947e-01  5.04394113021167100896e-05 5
6.43750000000000044409e-01  3.12500000000000000000e-01  7.48062869245962880349e-01  5.04876648179664044847e-05 5
6.50000000000000022204e-01  3.12500000000000000000e-01  7.40794332771324115505e-01  5.05164546165115524445e-05 5
6.56250000000000000000e-01  3.12500000000000000000e-01  7.33240205979734716024e-01  5.05257693625971171514e-05 5
6.62499999999999977796e-01  3.12500000000000000000e-01  7.25403401131105685096e-01  5.05156052318378456789e-05 5
6.68749999999999955591e-01  3.12500000000000000000e-01  7.17286939462301043058e-01  5.04859667280754820240e-05 5
6.75000000000000044409e-01  3.12500000000000000000e-01  7.08893950024549024391e-01  5.04368645265484971674e-05 5
6.81250000000000022204e-01  3.12500000000000000000e-01  7.00227668474261433218e-01  5.03683183414871393779e-05 5
6.87500000000000000000e-01  3.12500000000000000000e-01  6.91291435828651712470e-01  5.02803538933171978442e-05 5
6.93749999999999977796e-01  3.12500000000000000000e-01  6.82088697175014524454e-01  5.01730055928462093107e-05 5
6.99999999999999955591e-01  3.12500000000000000000e-01  6.72623000344410693074e-01  5.00463146972940364776e-05 5
7.06250000000000044409e-01  3.12500000000000000000e-01  6.62897994543348079155e-01  4.99003298566336184194e-05 5
7.12500000000000022204e-01  3.12500000000000000000e-01  6.52917428946566902326e-01  4.97351074707497176064e-05 5
7.18750000000000000000e-01  3.12500000000000000000e-01  6.42685151251959130292e-01  4.95507113705828672323e-05 5
7.24999999999999977796e-01  3.12500000000000000000e-01  6.32205106197562871628e-01  4.93472124374338960706e-05 5
7.31249999999999955591e-01  3.12500000000000000000e-01  6.21481334040030364285e-01  4.91246893374874815663e-05 5
7.37500000000000044409e-01  3.12500000000000000000e-01  6.10517968997985494006e-01  4.88832275360451262713e-05 5
7.43750000000000022204e-01  3.12500000000000000000e-01  5.99319237657060077673e-01  4.86229204111898738461e-05 5
7.50000000000000000000e-01  3.12500000000000000000e-01  5.87889457341417842606e-01  4.83438682615799919517e-05 5
7.56249999999999977796e-01  3.12500000000000000000e-01  5.76233034448933256755e-01  4.80461786801500423394e-05 5
7.62499999999999955591e-01  3.12500000000000000000e-01  5.64354462752689856053e-01  4.77299662641206268177e-05 5
7.68750000000000044409e-01  3.12500000000000000000e-01  5.52258321668091300971e-01  4.73953530224502372903e-05 5
7.75000000000000022204e-01  3.12500000000000000000e-01  5.39949274487565911151e-01  4.70424681766612451383e-05 5
7.81250000000000000000e-01  3.12500000000000000000e-01  5.27432066583599756804e-01  4.66714472849849570935e-05 5
7.87499999999999977796e-01  3.12500000000000000000e-01  5.14711523577490059900e-01  4.62824340093925812312e-05 5
7.93749999999999955591e-01  3.12500000000000000000e-01  5.01792549481345884210e-01  4.58755776877595167207e-05 5
8.00000000000000044409e-01  3.12500000000000000000e-01  4.88680124805355331485e-01  4.54510354211401512714e-05 5
8.06250000000000022204e-01  3.12500000000000000000e-01  4.75379304638569255559e-01  4.50089711466761244196e-05 5
8.12500000000000000000e-01  3.12500000000000000000e-01  4.61895216700929311937e-01  4.45495547140017933430e-05 5
8.18749999999999977796e-01  3.12500000000000000000e-01  4.48233059364214314613e-01  4.40729640396320121454e-05 5
8.24999999999999955591e-01  3.12500000000000000000e-01  4.34398099651105928931e-01  4.35793819004715032861e-05 5
8.31250000000000044409e-01  3.12500000000000000000e-01  4.20395671200833764836e-01  4.30689996824273890752e-05 5
8.37500000000000022204e-01  3.12500000000000000000e-01  4.06231172217372205058e-01  4.25420128891684790062e-05 5
8.43750000000000000000e-01  3.12500000000000000000e-01  3.91910063383454743136e-01  4.19986259426741170842e-05 5
8.49999999999999977796e-01  3.12500000000000000000e-01  3.77437865760169855012e-01  4.14390473099102152332e-05 5
8.56249999999999955591e-01  3.12500000000000000000e-01  3.62820158654634350448e-01  4.08634932778650927787e-05 5
8.62500000000000044409e-01  3.12500000000000000000e-01  3.48062577471302758703e-01  4.02721856277987733108e-05 5
8.68750000000000022204e-01  3.12500000000000000000e-01  3.33170811538866962209e-01  3.96653520992606978268e-05 5
8.75000000000000000000e-01  3.12500000000000000000e-01  3.18150601916095010502e-01  3.90432271135665587281e-05 5
8.81249999999999977796e-01  3.12500000000000000000e-01  3.03007739180304824789e-01  3.84060499266092314485e-05 5
8.87499999999999955591e-01  3.12500000000000000000e-01  2.87748061192793058716e-01  3.77540667282350028700e-05 5
8.93750000000000044409e-01  3.12500000000000000000e-01  2.72377450850329494436e-01  3.70875284449456721347e-05 5
9.00000000000000022204e-01  3.12500000000000000000e-01  2.56901833815572855357e-01  3.64066922625694289195e-05 5
9.06250000000000000000e-01  3.12500000000000000000e-01  2.41327176233491702551e-01  3.57118206456008557836e-05 5
9.12499999999999977796e-01  3.12500000000000000000e-01  2.25659482431190577811e-01  3.50031813514672940357e-05 5
9.18749999999999955591e-01  3.12500000000000000000e-01  2.09904792602580297922e-01  3.42810478715094291147e-05 5
9.25000000000000044409e-01  3.12500000000000000000e-01  1.94069180480991559934e-01  3.35456981048198876749e-05 5
9.31250000000000022204e-01  3.12500000000000000000e-01  1.78158750995773523806e-01  3.27974161110355932891e-05 5
9.37500000000000000000e-01  3.12500000000000000000e-01  1.62179637920840974408e-01  3.20364898881986270851e-05 5
9.43749999999999977796e-01  3.12500000000000000000e-01  1.46138001508179571353e-01  3.12632130680667863487e-05 5
9.49999999999999955591e-01  3.12500000000000000000e-01  1.30040026114046358696e-01  3.04778837105501576588e-05 5
9.56250000000000044409e-01  3.12500000000000000000e-01  1.13891917814519558205e-01  2.96808044502744339255e-05 5
9.62500000000000022204e-01  3.12500000000000000000e-01  9.76999020125317446661e-02  2.88722827866128017860e-05 5
9.68750000000000000000e-01  3.12500000000000000000e-01  8.14702210386163278022e-02  2.80526302077893641140e-05 5
9.74999999999999977796e-01  3.12500000000000000000e-01  6.52091317435471301556e-02  2.72221628924984582198e-05 5
9.81249999999999955591e-01  3.12500000000000000000e-01  4.89229030869291273143e-02  2.63812008646641116272e-05 5
9.87500000000000044409e-01  3.12500000000000000000e-01  3.26178137198689446774e-02  2.55300683930995142568e-05 5
9.93750000000000022204e-01  3.12500000000000000000e-01  1.63119014335638724822e-02  1.29172247423404995548e-05 5
1.00000000000000000000e+00  3.12500000000000000000e-01  0.00000000000000000000e+00  1.01825659929460279672e-16 5
0.00000000000000000000e+00  3.18749999999999977796e-01  0.00000000000000000000e+00  0.00000000000000000000e+00 5
6.25000000000000034694e-03  3.18749999999999977796e-01  1.65466337535113035273e-02  1.07996016846280407098e-05 5
1.25000000000000006939e-02  3.18749999999999977796e-01  3.30865979187795339334e-02  2.13044939657014431589e-05 5
1.87499999999999993061e-02  3.18749999999999977796e-01  4.96024022828428640119e-02  2.03968850837829562828e-05 5
2.50000000000000013878e-02  3.18749999999999977796e-01  6.60990839765995819022e-02  1.94814128127024366322e-05 5
3.12500000000000000000e-02  3.18749999999999977796e-01  8.25702832152297588886e-02  1.85584300861768580759e-05 5
3.74999999999999986122e-02  3.18749999999999977796e-01  9.90096500378851440693e-02  1.76282927334403538566e-05 5
4.37499999999999972244e-02  3.18749999999999977796e-01  1.15410846755716722800e-01  1.66913593389744763229e-05 5
5.00000000000000027756e-02  3.18749999999999977796e-01  1.31767550395170490729e-01  1.57479911001290329153e-05 5
5.62500000000000013878e-02  3.18749999999999977796e-01  1.48073455135648374137e-01  1.47985517224002993686e-05 5
6.25000000000000000000e-02  3.18749999999999977796e-01  1.64322274740458240672e-01  1.38434072151638609682e-05 5
6.87500000000000055511e-02  3.18749999999999977796e-01  1.80507744980333478813e-01  1.28829258062013174424e-05 5
7.49999999999999972244e-02  3.18749999999999977796e-01  1.96623626048406829891e-01  1.19174777942210319281e-05 5
8.12500000000000027756e-02  3.18749999999999977796e-01  2.12663704965730199214e-01  1.09474353611749286586e-05 5
8.74999999999999944489e-02  3.18749999999999977796e-01  2.28621797976546553555e-01  9.97317247936058137725e-06 5
9.37500000000000000000e-02  3.18749999999999977796e-01  2.44491752932245981489e-01  8.99506476770284280065e-06 5
1.00000000000000005551e-01  3.18749999999999977796e-01  2.60267451663062476808e-01  8.01348927303990876680e-06 5
1.06249999999999997224e-01  3.18749999999999977796e-01  2.75942812336831377884e-01  7.02882441167007598892e-06 5
1.12500000000000002776e-01  3.18749999999999977796e-01  2.91511791803672926093e-01  6.04144984478471869238e-06 5
1.18749999999999994449e-01  3.18749999999999977796e-01  3.06968387925554253570e-01  5.05174614473524741243e-06 5
1.25000000000000000000e-01  3.18749999999999977796e-01  3.22306641890491574198e-01  4.06009491205061578967e-06 5
1.31250000000000005551e-01  3.18749999999999977796e-01  3.37520640509608060853e-01  3.06687845091913047213e-06 5
1.37500000000000011102e-01  3.18749999999999977796e-01  3.52604518496794083759e-01  2.07247963485146513563e-06 5
1.43749999999999988898e-01  3.18749999999999977796e-01  3.67552460729963448305e-01  1.07728183623700957128e-06 5
1.49999999999999994449e-01  3.18749999999999977796e-01  3.82358704492870571379e-01  8.16687550364569858630e-08 5
1.56250000000000000000e-01  3.18749999999999977796e-01  3.97017541696594533640e-01  9.13975881478013008063e-07 5
1.62500000000000005551e-01  3.18749999999999977796e-01  4.11523321080494275392e-01  1.90926808862901253860e-06 5
1.68750000000000011102e-01  3.18749999999999977796e-01  4.25870450390372135008e-01  2.90382427736712855904e-06 5
1.74999999999999988898e-01  3.18749999999999977796e-01  4.40053398534845152668e-01  3.89726095129105942760e-06 5
1.81249999999999994449e-01  3.18749999999999977796e-01  4.54066697717314393667e-01  4.88919522612096812964e-06 5
1.87500000000000000000e-01  3.18749999999999977796e-01  4.67904945544331873908e-01  5.87924455014432467692e-06 5
1.93750000000000005551e-01  3.18749999999999977796e-01  4.81562807107866142076e-01  6.86702731145238942645e-06 5
2.00000000000000011102e-01  3.18749999999999977796e-01  4.95035017042205927051e-01  7.85216279031164532398e-06 5
2.06249999999999988898e-01  3.18749999999999977796e-01  5.08316381554176022206e-01  8.83427098841149671671e-06 5
2.12499999999999994449e-01  3.18749999999999977796e-01  5.21401780424735505903e-01  9.81297348368048716338e-06 5
2.18750000000000000000e-01  3.18749999999999977796e-01  5.34286168983566622792e-01  1.07878929288540703624e-05 5
2.25000000000000005551e-01  3.18749999999999977796e-01  5.46964580053721616260e-01  1.17586533667779491452e-05 5
2.31250000000000011102e-01  3.18749999999999977796e-01  5.59432125866334062358e-01  1.27248806049973239851e-05 5
2.37499999999999988898e-01  3.18749999999999977796e-01  5.71683999945049148295e-01  1.36862022578343456303e-05 5
2.43749999999999994449e-01  3.18749999999999977796e-01  5.83715478959438094364e-01  1.46422474642804445466e-05 5
2.50000000000000000000e-01  3.18749999999999977796e-01  5.95521924544966774207e-01  1.55926479946666418641e-05 5
2.56249999999999977796e-01  3.18749999999999977796e-01  6.07098785092457737811e-01  1.65370371100204138770e-05 5
2.62500000000000011102e-01  3.18749999999999977796e-01  6.18441597501581785679e-01  1.74750509429610900725e-05 5
2.68749999999999988898e-01  3.18749999999999977796e-01  6.29545988902341813187e-01  1.84063277640644784583e-05 5
2.75000000000000022204e-01  3.18749999999999977796e-01  6.40407678340267016992e-01  1.93305087528017338627e-05 5
2.81250000000000000000e-01  3.18749999999999977796e-01  6.51022478427749851093e-01  2.02472371869655276555e-05 5
2.87499999999999977796e-01  3.18749999999999977796e-01  6.61386296956805730396e-01  2.11561601393128739801e-05 5
2.93750000000000011102e-01  3.18749999999999977796e-01  6.71495138478315878316e-01  2.20569269945292134594e-05 5
2.99999999999999988898e-01  3.18749999999999977796e-01  6.81345105841551501591e-01  2.29491903811496200660e-05 5
3.06250000000000022204e-01  3.18749999999999977796e-01  6.90932401696482179076e-01  2.38326064241345392247e-05 5
3.12500000000000000000e-01  3.18749999999999977796e-01  7.00253329957970183095e-01  2.47068346326262400225e-05 5
3.18749999999999977796e-01  3.18749999999999977796e-01  7.09304297230900271387e-01  2.55715378135734638931e-05 5
3.25000000000000011102e-01  3.18749999999999977796e-01  7.18081814195005829760e-01  2.64263826974531212954e-05 5
3.31249999999999988898e-01  3.18749999999999977796e-01  7.26582496950425427151e-01  2.72710397092312817335e-05 5
3.37500000000000022204e-01  3.18749999999999977796e-01  7.34803068322045005445e-01  2.81051833116441329707e-05 5
3.43750000000000000000e-01  3.18749999999999977796e-01  7.42740359123400972763e-01  2.89284916402676728353e-05 5
3.49999999999999977796e-01  3.18749999999999977796e-01  7.50391309377558157756e-01  2.97406475323613861406e-05 5
3.56250000000000011102e-01  3.18749999999999977796e-01  7.57752969497440642677e-01  3.05413379968477727289e-05 5
3.62499999999999988898e-01  3.18749999999999977796e-01  7.64822501423293332756e-01  3.13302539952653447131e-05 5
3.68750000000000022204e-01  3.18749999999999977796e-01  7.71597179715552305979e-01  3.21070918175569985920e-05 5
3.75000000000000000000e-01  3.18749999999999977796e-01  7.78074392607298492841e-01  3.28715514533728381252e-05 5
3.81249999999999977796e-01  3.18749999999999977796e-01  7.84251643009133858619e-01  3.36233387177031772808e-05 5
3.87500000000000011102e-01  3.18749999999999977796e-01  7.90126549473837536119e-01  3.43621633842605689324e-05 5
3.93749999999999988898e-01  3.18749999999999977796e-01  7.95696847112997374118e-01  3.50877407577776523340e-05 5
4.00000000000000022204e-01  3.18749999999999977796e-01  8.00960388470428052976e-01  3.57997915244601117024e-05 5
4.06250000000000000000e-01  3.18749999999999977796e-01  8.05915144351659895605e-01  3.64980402555170613255e-05 5
4.12499999999999977796e-01  3.18749999999999977796e-01  8.10559204603087946062e-01  3.71822186572279278494e-05 5
4.18750000000000011102e-01  3.18749999999999977796e-01  8.14890778851583452713e-01  3.78520624640943381678e-05 5
4.24999999999999988898e-01  3.18749999999999977796e-01  8.18908197192623643623e-01  3.85073136331959275935e-05 5
4.31250000000000022204e-01  3.18749999999999977796e-01  8.22609910835203184121e-01  3.91477193125711053767e-05 5
4.37500000000000000000e-01  3.18749999999999977796e-01  8.25994492697642468393e-01  3.97730332185597390549e-05 5
4.43749999999999977796e-01  3.18749999999999977796e-01  8.29060637960003732339e-01  4.03830134823035535874e-05 5
4.50000000000000011102e-01  3.18749999999999977796e-01  8.31807164564393297645e-01  4.09774254729322606750e-05 5
4.56249999999999988898e-01  3.18749999999999977796e-01  8.34233013672718404230e-01  4.15560398375758310863e-05 5
4.62500000000000022204e-01  3.18749999999999977796e-01  8.36337250073865612343e-01  4.21186336134748984250e-05 5
4.68750000000000000000e-01  3.18749999999999977796e-01  8.38119062544813053783e-01  4.26649897431463642761e-05 5
4.74999999999999977796e-01  3.18749999999999977796e-01  8.39577764162772854917e-01  4.31948977580587367697e-05 5
4.81250000000000011102e-01  3.18749999999999977796e-01  8.40712792570348033117e-01  4.37081535241690133375e-05 5
4.87499999999999988898e-01  3.18749999999999977796e-01  8.41523710192941587493e-01  4.42045587110140303366e-05 5
4.93750000000000022204e-01  3.18749999999999977796e-01  8.42010204405962303653e-01  4.46839223562367493514e-05 5
5.00000000000000000000e-01  3.18749999999999977796e-01  8.42172087657111823056e-01  4.51460591746055683871e-05 5
5.06249999999999977796e-01  3.18749999999999977796e-01  8.42009297536469136780e-01  4.55907918494036223933e-05 5
5.12499999999999955591e-01  3.18749999999999977796e-01  8.41521896803799296372e-01  4.60179478533051522504e-05 5
5.18750000000000044409e-01  3.18749999999999977796e-01  8.40710073360196763481e-01  4.64273636754386487269e-05 5
5.25000000000000022204e-01  3.18749999999999977796e-01  8.39574140180177619364e-01  4.68188803532942898755e-05 5
5.31250000000000000000e-01  3.18749999999999977796e-01  8.38114535186898934604e-01  4.71923476573765654507e-05 5
5.37499999999999977796e-01  3.18749999999999977796e-01  8.36331821086126359077e-01  4.75476213527281643678e-05 5
5.43749999999999955591e-01  3.18749999999999977796e-01  8.34226685147962498945e-01  4.78845645934811159350e-05 5
5.50000000000000044409e-01  3.18749999999999977796e-01  8.31799938942520800111e-01  4.82030473453187724431e-05 5
5.56250000000000022204e-01  3.18749999999999977796e-01  8.29052518026402118778e-01  4.85029470839171139573e-05 5
5.62500000000000000000e-01  3.18749999999999977796e-01  8.25985481583093261726e-01  4.87841477677664059343e-05 5
5.68749999999999977796e-01  3.18749999999999977796e-01  8.22600012013197101624e-01  4.90465413186536025592e-05 5
5.74999999999999955591e-01  3.18749999999999977796e-01  8.18897414479555330047e-01  4.92900267015095039369e-05 5
5.81250000000000044409e-01  3.18749999999999977796e-01  8.14879116404383263550e-01  4.95145096642835014222e-05 5
5.87500000000000022204e-01  3.18749999999999977796e-01  8.10546666918111280431e-01  4.97199036338935584922e-05 5
5.93750000000000000000e-01  3.18749999999999977796e-01  8.05901736261808054884e-01  4.99061301073577823217e-05 5
5.99999999999999977796e-01  3.18749999999999977796e-01  8.00946115145618087183e-01  5.00731163345369267859e-05 5
6.06249999999999955591e-01  3.18749999999999977796e-01  7.95681714054946587211e-01  5.02207988085645595788e-05 5
6.12500000000000044409e-01  3.18749999999999977796e-01  7.90110562517087222645e-01  5.03491201344630212589e-05 5
6.18750000000000022204e-01  3.18749999999999977796e-01  7.84234808317324172400e-01  5.04580305275004192822e-05 5
6.25000000000000000000e-01  3.18749999999999977796e-01  7.78056716669766279537e-01  5.05474889855861420074e-05 5
6.31249999999999977796e-01  3.18749999999999977796e-01  7.71578669347411372215e-01  5.06174599584907625172e-05 5
6.37499999999999955591e-01  3.18749999999999977796e-01  7.64803163760293891471e-01  5.06679169949286745123e-05 5