Titile = 'Poisson'  
VARIABLES = X, Y, U, Error, Rank 
zone N= 1771, E = 3200
DATAPACKING=POINT, ZONETYPE=FETRIANGLE
0.00000000000000000000e+00  3.12500000000000000000e-01  0.00000000000000000000e+00  0.00000000000000000000e+00 5
6.25000000000000034694e-03  3.12500000000000000000e-01  1.63243693624917779461e-02  4.49295814240746604895e-07 5
1.25000000000000006939e-02  3.12500000000000000000e-01  3.26424275113862544240e-02  9.16276875879973307093e-07 5
1.87499999999999993061e-02  3.12500000000000000000e-01  4.89478840086249866737e-02  1.40027916842311306311e-06 5
2.50000000000000013878e-02  3.12500000000000000000e-01  6.52344532670227905680e-02  1.90063941672702352292e-06 5
3.12500000000000000000e-02  3.12500000000000000000e-01  8.14958569733664900392e-02  2.41669545743283809003e-06 5
3.74999999999999986122e-02  3.12500000000000000000e-01  9.77258265087101729574e-02  2.94778660825389948741e-06 5
4.37499999999999972244e-02  3.12500000000000000000e-01  1.13918105364939070689e-01  3.49325403073419415989e-06 5
5.00000000000000027756e-02  3.12500000000000000000e-01  1.30066451556665380052e-01  4.05244109144553554813e-06 5
5.62500000000000013878e-02  3.12500000000000000000e-01  1.46164640027535625011e-01  4.62469371181883914801e-06 5
6.25000000000000000000e-02  3.12500000000000000000e-01  1.62206465050013542983e-01  5.20936071532474009871e-06 5
6.87500000000000055511e-02  3.12500000000000000000e-01  1.78185742617724407477e-01  5.80579416017967808727e-06 5
7.49999999999999972244e-02  3.12500000000000000000e-01  1.94096312829432376956e-01  6.41334966389184302216e-06 5
8.12500000000000027756e-02  3.12500000000000000000e-01  2.09932042263732299148e-01  7.03138671931391456837e-06 5
8.74999999999999944489e-02  3.12500000000000000000e-01  2.25686826343549945539e-01  7.65926899182201026406e-06 5
9.37500000000000000000e-02  3.12500000000000000000e-01  2.41354591689526914999e-01  8.29636461036065142594e-06 5
1.00000000000000005551e-01  3.12500000000000000000e-01  2.56929298461392563446e-01  8.94204644275031768075e-06 5
1.06249999999999997224e-01  3.12500000000000000000e-01  2.72404942686422180120e-01  9.59569235237101025859e-06 5
1.12500000000000002776e-01  3.12500000000000000000e-01  2.87775558574066558926e-01  1.02566854544572372276e-05 5
1.18749999999999994449e-01  3.12500000000000000000e-01  3.03035220815893513446e-01  1.09244143379205738142e-05 5
1.25000000000000000000e-01  3.12500000000000000000e-01  3.18178046869916186790e-01  1.15982732922792486363e-05 5
1.31250000000000005551e-01  3.12500000000000000000e-01  3.33198199228456115595e-01  1.22776625098852676388e-05 5
1.37500000000000011102e-01  3.12500000000000000000e-01  3.48089887668658226616e-01  1.29619882724973933819e-05 5
1.43749999999999988898e-01  3.12500000000000000000e-01  3.62847371484776803907e-01  1.36506631350230556166e-05 5
1.49999999999999994449e-01  3.12500000000000000000e-01  3.77464961701394929872e-01  1.43431060847798441671e-05 5
1.56250000000000000000e-01  3.12500000000000000000e-01  3.91937023266708317593e-01  1.50387426888776154499e-05 5
1.62500000000000005551e-01  3.12500000000000000000e-01  4.06257977225024269341e-01  1.57370052371597068941e-05 5
1.68750000000000011102e-01  3.12500000000000000000e-01  4.20422302867651975777e-01  1.64373328642164473479e-05 5
1.74999999999999988898e-01  3.12500000000000000000e-01  4.34424539861342551283e-01  1.71391716637381286148e-05 5
1.81249999999999994449e-01  3.12500000000000000000e-01  4.48259290353462069856e-01  1.78419747916547244415e-05 5
1.87500000000000000000e-01  3.12500000000000000000e-01  4.61921221053085584440e-01  1.85452025577292900493e-05 5
1.93750000000000005551e-01  3.12500000000000000000e-01  4.75405065287205941260e-01  1.92483225099904231570e-05 5
2.00000000000000011102e-01  3.12500000000000000000e-01  4.88705625031274071279e-01  1.99508095022893350290e-05 5
2.06249999999999988898e-01  3.12500000000000000000e-01  5.01817772913267790003e-01  2.06521457657427021104e-05 5
2.12499999999999994449e-01  3.12500000000000000000e-01  5.14736454190538927911e-01  2.13518209603025255205e-05 5
2.18750000000000000000e-01  3.12500000000000000000e-01  5.27456688698657472081e-01  2.20493322272696801178e-05 5
2.25000000000000005551e-01  3.12500000000000000000e-01  5.39973572771516918678e-01  2.27441842255426962538e-05 5
2.31250000000000011102e-01  3.12500000000000000000e-01  5.52282281131941554797e-01  2.34358891724184559280e-05 5
2.37499999999999988898e-01  3.12500000000000000000e-01  5.64378068752085515492e-01  2.41239668681281216323e-05 5
2.43749999999999994449e-01  3.12500000000000000000e-01  5.76256272682885373193e-01  2.48079447280336040649e-05 5
2.50000000000000000000e-01  3.12500000000000000000e-01  5.87912313851886914051e-01  2.54873577923975247472e-05 5
2.56249999999999977796e-01  3.12500000000000000000e-01  5.99341698828723234982e-01  2.61617487479215427015e-05 5
2.62500000000000011102e-01  3.12500000000000000000e-01  6.10540021557587575529e-01  2.68306679339636033887e-05 5
2.68749999999999988898e-01  3.12500000000000000000e-01  6.21502965056016876133e-01  2.74936733506425667883e-05 5
2.75000000000000022204e-01  3.12500000000000000000e-01  6.32226303079333695756e-01  2.81503306666097685707e-05 5
2.81250000000000000000e-01  3.12500000000000000000e-01  6.42705901750118546722e-01  2.88002132110554143196e-05 5
2.87499999999999977796e-01  3.12500000000000000000e-01  6.52937721152054173501e-01  2.94429019834785421494e-05 5
2.93750000000000011102e-01  3.12500000000000000000e-01  6.62917816887567790118e-01  3.00779856369226550328e-05 5
2.99999999999999988898e-01  3.12500000000000000000e-01  6.72642341598631565702e-01  3.07050604764214085662e-05 5
3.06250000000000022204e-01  3.12500000000000000000e-01  6.82107546450154478279e-01  3.13237304528923843350e-05 5
3.12500000000000000000e-01  3.12500000000000000000e-01  6.91309782575398434901e-01  3.19336071464837445433e-05 5
3.18749999999999977796e-01  3.12500000000000000000e-01  7.00245502482841231107e-01  3.25343097615782284038e-05 5
3.25000000000000011102e-01  3.12500000000000000000e-01  7.08911261423967098416e-01  3.31254651083634499287e-05 5
3.31249999999999988898e-01  3.12500000000000000000e-01  7.17303718721443717143e-01  3.37067075851793518382e-05 5
3.37500000000000022204e-01  3.12500000000000000000e-01  7.25419639057166110163e-01  3.42776791711907335980e-05 5
3.43750000000000000000e-01  3.12500000000000000000e-01  7.33255893719702234179e-01  3.48380293949679398224e-05 5
3.49999999999999977796e-01  3.12500000000000000000e-01  7.40809461810607583487e-01  3.53874153329325480399e-05 5
3.56250000000000011102e-01  3.12500000000000000000e-01  7.48077431409205351187e-01  3.59255015756065887444e-05 5
3.62499999999999988898e-01  3.12500000000000000000e-01  7.55057000695330216011e-01  3.64519602130686237729e-05 5
3.68750000000000022204e-01  3.12500000000000000000e-01  7.61745479029631744616e-01  3.69664708141925757445e-05 5
3.75000000000000000000e-01  3.12500000000000000000e-01  7.68140287991017745028e-01  3.74687203985590855382e-05 5
3.81249999999999977796e-01  3.12500000000000000000e-01  7.74238962370823236014e-01  3.79584034190250108054e-05 5
3.87500000000000011102e-01  3.12500000000000000000e-01  7.80039151123338325711e-01  3.84352217365213633116e-05 5
3.93749999999999988898e-01  3.12500000000000000000e-01  7.85538618272329736136e-01  3.88988845857474174750e-05 5
4.00000000000000022204e-01  3.12500000000000000000e-01  7.90735243773182494564e-01  3.93491085580732757876e-05 5
4.06250000000000000000e-01  3.12500000000000000000e-01  7.95627024330354815085e-01  3.97856175724520255699e-05 5
4.12499999999999977796e-01  3.12500000000000000000e-01  8.00212074169824427727e-01  4.02081428442224719788e-05 5
4.18750000000000011102e-01  3.12500000000000000000e-01  8.04488625766231812975e-01  4.06164228480276889854e-05 5
4.24999999999999988898e-01  3.12500000000000000000e-01  8.08455030524410034332e-01  4.10102033028270085424e-05 5
4.31250000000000022204e-01  3.12500000000000000000e-01  8.12109759415095777690e-01  4.13892371239343859202e-05 5
4.37500000000000000000e-01  3.12500000000000000000e-01  8.15451403564520616030e-01  4.17532843964840694184e-05 5
4.43749999999999977796e-01  3.12500000000000000000e-01  8.18478674797689764731e-01  4.21021123375719952264e-05 5
4.50000000000000011102e-01  3.12500000000000000000e-01  8.21190406135128170284e-01  4.24354952552885578143e-05 5
4.56249999999999988898e-01  3.12500000000000000000e-01  8.23585552242888541130e-01  4.27532145206299674101e-05 5
4.62500000000000022204e-01  3.12500000000000000000e-01  8.25663189835685873419e-01  4.30550585135414110027e-05 5
4.68750000000000000000e-01  3.12500000000000000000e-01  8.27422518032959297685e-01  4.33408225866127594372e-05 5
4.74999999999999977796e-01  3.12500000000000000000e-01  8.28862858667741231322e-01  4.36103090297734752312e-05 5
4.81250000000000011102e-01  3.12500000000000000000e-01  8.29983656548243797779e-01  4.38633270056776325418e-05 5
4.87499999999999988898e-01  3.12500000000000000000e-01  8.30784479672009079643e-01  4.40996925107350890016e-05 5
4.93750000000000022204e-01  3.12500000000000000000e-01  8.31265019392568138556e-01  4.43192283319238100603e-05 5
5.00000000000000000000e-01  3.12500000000000000000e-01  8.31425090538570166210e-01  4.45217639750694615941e-05 5
5.06249999999999977796e-01  3.12500000000000000000e-01  8.31264631485268412625e-01  4.47071356316497414696e-05 5
5.12499999999999955591e-01  3.12500000000000000000e-01  8.30783704178414517116e-01  4.48751861052976153132e-05 5
5.18750000000000044409e-01  3.12500000000000000000e-01  8.29982494110491741957e-01  4.50257647577334552125e-05 5
5.25000000000000022204e-01  3.12500000000000000000e-01  8.28861310249331739719e-01  4.51587274392650783739e-05 5
5.31250000000000000000e-01  3.12500000000000000000e-01  8.27420584919109303179e-01  4.52739364367182872684e-05 5
5.37499999999999977796e-01  3.12500000000000000000e-01  8.25660873633811354111e-01  4.53712603880607190376e-05 5
5.43749999999999955591e-01  3.12500000000000000000e-01  8.23582854883178838712e-01  4.54505742303323856390e-05 5
5.50000000000000044409e-01  3.12500000000000000000e-01  8.21187329871279625415e-01  4.55117591037224045181e-05 5
5.56250000000000022204e-01  3.12500000000000000000e-01  8.18475222207736385904e-01  4.55547022909508214639e-05 5
5.62500000000000000000e-01  3.12500000000000000000e-01  8.15447577551789537509e-01  4.55792971275625902194e-05 5
5.68749999999999977796e-01  3.12500000000000000000e-01  8.12105563209294722959e-01  4.55854429249891168752e-05 5
5.74999999999999955591e-01  3.12500000000000000000e-01  8.08450467682838236350e-01  4.55730448747360128436e-05 5
5.81250000000000044409e-01  3.12500000000000000000e-01  8.04483700175107840913e-01  4.55420139719997507655e-05 5
5.87500000000000022204e-01  3.12500000000000000000e-01  8.00206790045771776398e-01  4.54922668968738008743e-05 5
5.93750000000000000000e-01  3.12500000000000000000e-01  7.95621386221977533459e-01  4.54237259497336509639e-05 5
5.99999999999999977796e-01  3.12500000000000000000e-01  7.90729256562817894860e-01  4.53363189227840024387e-05 5
6.06249999999999955591e-01  3.12500000000000000000e-01  7.85532287177906130005e-01  4.52299790094645715044e-05 5
6.12500000000000044409e-01  3.12500000000000000000e-01  7.80032481700379309864e-01  4.51046446955372104526e-05 5
6.18750000000000022204e-01  3.12500000000000000000e-01  7.74231960514603745338e-01  4.49602596386267094886e-05 5
6.25000000000000000000e-01  3.12500000000000000000e-01  7.68132959938853221438e-01  4.47967725630826762995e-05 5
6.31249999999999977796e-01  3.12500000000000000000e-01  7.61737831363308304233e-01  4.46141371376329587406e-05 5
6.37499999999999955591e-01  3.12500000000000000000e-01  7.55049040343690802679e-01  4.44123118525929783118e-05 5
6.43750000000000044409e-01  3.12500000000000000000e-01  7.48069165650894984942e-01  4.41912598858618110853e-05 5
6.50000000000000022204e-01  3.12500000000000000000e-01  7.40800898276950614552e-01  4.39509489900125061013e-05 5
6.56250000000000000000e-01  3.12500000000000000000e-01  7.33247040397760563302e-01  4.36913513367498396178e-05 5
6.62499999999999977796e-01  3.12500000000000000000e-01  7.25410504292936186843e-01  4.34124434013360982476e-05 5
6.68749999999999955591e-01  3.12500000000000000000e-01  7.17294311223224290153e-01  4.31142058048283871585e-05 5
6.75000000000000044409e-01  3.12500000000000000000e-01  7.08901590265900494181e-01  4.27966231750787073906e-05 5
6.81250000000000022204e-01  3.12500000000000000000e-01  7.00235577108597517793e-01  4.24596840054025648215e-05 5
6.87500000000000000000e-01  3.12500000000000000000e-01  6.91299612802052987348e-01  4.21033804920423193607e-05 5
6.93749999999999977796e-01  3.12500000000000000000e-01  6.82097142472216977360e-01  4.17277083903933032616e-05 5
6.99999999999999955591e-01  3.12500000000000000000e-01  6.72631713992257185275e-01  4.13326668508018357784e-05 5
7.06250000000000044409e-01  3.12500000000000000000e-01  6.62906976614947240911e-01  4.09182582574718622936e-05 5
7.12500000000000022204e-01  3.12500000000000000000e-01  6.52926679565961953777e-01  4.04844880756982661296e-05 5
7.18750000000000000000e-01  3.12500000000000000000e-01  6.42694670598657369354e-01  4.00313646723438054664e-05 5
7.24999999999999977796e-01  3.12500000000000000000e-01  6.32214894510840674791e-01  3.95588991596307337772e-05 5
7.31249999999999955591e-01  3.12500000000000000000e-01  6.21491391624148237227e-01  3.90671052196145396351e-05 5
7.37500000000000044409e-01  3.12500000000000000000e-01  6.10528296226590105888e-01  3.85559989314332440813e-05 5
7.43750000000000022204e-01  3.12500000000000000000e-01  5.99329834978859832262e-01  3.80255986114352850791e-05 5
7.50000000000000000000e-01  3.12500000000000000000e-01  5.87900325285064528913e-01  3.74759246148936853160e-05 5
7.56249999999999977796e-01  3.12500000000000000000e-01  5.76244173628430056411e-01  3.69069991833503863177e-05 5
7.62499999999999955591e-01  3.12500000000000000000e-01  5.64365873872692769275e-01  3.63188462612074047797e-05 5
7.68750000000000044409e-01  3.12500000000000000000e-01  5.52270005529791885301e-01  3.57114913218659069116e-05 5
7.75000000000000022204e-01  3.12500000000000000000e-01  5.39961231994552814939e-01  3.50849611897574575892e-05 5
7.81250000000000000000e-01  3.12500000000000000000e-01  5.27444298747010487105e-01  3.44392838742546558706e-05 5
7.87499999999999977796e-01  3.12500000000000000000e-01  5.14724031523109415431e-01  3.37744883900370496121e-05 5
7.93749999999999955591e-01  3.12500000000000000000e-01  5.01805334454438978220e-01  3.30906045946655069656e-05 5
8.00000000000000044409e-01  3.12500000000000000000e-01  4.88693188177764692437e-01  3.23876630117791997066e-05 5
8.06250000000000022204e-01  3.12500000000000000000e-01  4.75392647915034549655e-01  3.16656946813820283637e-05 5
8.12500000000000000000e-01  3.12500000000000000000e-01  4.61908841524654667499e-01  3.09247309886462318218e-05 5
8.18749999999999977796e-01  3.12500000000000000000e-01  4.48246967524746964262e-01  3.01648035069823627907e-05 5
8.24999999999999955591e-01  3.12500000000000000000e-01  4.34412293089142087510e-01  2.93859438643129244895e-05 5
8.31250000000000044409e-01  3.12500000000000000000e-01  4.20410152016946703224e-01  2.85881835694890007460e-05 5
8.37500000000000022204e-01  3.12500000000000000000e-01  4.06245942676346283307e-01  2.77715539150902301913e-05 5
8.43750000000000000000e-01  3.12500000000000000000e-01  3.91925125923597850175e-01  2.69360857995670777143e-05 5
8.49999999999999977796e-01  3.12500000000000000000e-01  3.77453222997832793517e-01  2.60818096469717097818e-05 5
8.56249999999999955591e-01  3.12500000000000000000e-01  3.62835813392649919606e-01  2.52087552622959343296e-05 5
8.62500000000000044409e-01  3.12500000000000000000e-01  3.48078532705185739182e-01  2.43169517448182936903e-05 5
8.68750000000000022204e-01  3.12500000000000000000e-01  3.33187070463571932688e-01  2.34064273942902190129e-05 5
8.75000000000000000000e-01  3.12500000000000000000e-01  3.18167167933614492004e-01  2.24772095940850569207e-05 5
8.81249999999999977796e-01  3.12500000000000000000e-01  3.03024615905442773478e-01  2.15293247886605421115e-05 5
8.87499999999999955591e-01  3.12500000000000000000e-01  2.87765252461146758822e-01  2.05627983745348963396e-05 5
8.93750000000000044409e-01  3.12500000000000000000e-01  2.72394960724096801830e-01  1.95776546776382787129e-05 5
9.00000000000000022204e-01  3.12500000000000000000e-01  2.56919666590916417892e-01  1.85739169190068942328e-05 5
9.06250000000000000000e-01  3.12500000000000000000e-01  2.41345336446989994217e-01  1.75516071473091894717e-05 5
9.12499999999999977796e-01  3.12500000000000000000e-01  2.25677974866261732423e-01  1.65107462803126825435e-05 5
9.18749999999999955591e-01  3.12500000000000000000e-01  2.09923622296391082509e-01  1.54513540607248422987e-05 5
9.25000000000000044409e-01  3.12500000000000000000e-01  1.94088352729991003853e-01  1.43734491053759683155e-05 5
9.31250000000000022204e-01  3.12500000000000000000e-01  1.78178271362995965799e-01  1.32770488885936011059e-05 5
9.37500000000000000000e-01  3.12500000000000000000e-01  1.62199512240911614125e-01  1.21621698175589099122e-05 5
9.43749999999999977796e-01  3.12500000000000000000e-01  1.46158235894002563882e-01  1.10288272450742574904e-05 5
9.49999999999999955591e-01  3.12500000000000000000e-01  1.30060626962194836320e-01  9.87703556207253363652e-06 5
9.56250000000000044409e-01  3.12500000000000000000e-01  1.13912891810731664588e-01  8.70680823816805116167e-06 5
9.62500000000000022204e-01  3.12500000000000000000e-01  9.77212561373989874181e-02  7.51815791937004984646e-06 5
9.68750000000000000000e-01  3.12500000000000000000e-01  8.14919625723108248527e-02  6.31109651329231358119e-06 5
9.74999999999999977796e-01  3.12500000000000000000e-01  6.52312682711772146016e-02  5.08563526241401220318e-06 5
9.81249999999999955591e-01  3.12500000000000000000e-01  4.89454425029121897861e-02  3.84178488160163977838e-06 5
9.87500000000000044409e-01  3.12500000000000000000e-01  3.26407642326375646569e-02  2.57955562447953479221e-06 5
9.93750000000000022204e-01  3.12500000000000000000e-01  1.63235197008796059648e-02  1.29895742660701696281e-06 5
1.00000000000000000000e+00  3.12500000000000000000e-01  0.00000000000000000000e+00  1.01825659929460279672e-16 5
0.00000000000000000000e+00  3.18749999999999977796e-01  0.00000000000000000000e+00  0.00000000000000000000e+00 5
6.25000000000000034694e-03  3.18749999999999977796e-01  1.65353623787122365474e-02  4.71773114438939211723e-07 5
1.25000000000000006939e-02  3.18749999999999977796e-01  3.30643327278085721876e-02  9.60697005260302550056e-07 5
1.87499999999999993061e-02  3.18749999999999977796e-01  4.95805392818704643298e-02  1.46611588861672581530e-06 5
2.50000000000000013878e-02  3.18749999999999977796e-01  6.60776151890983681758e-02  1.98737468851128973313e-06 5
3.12500000000000000000e-02  3.18749999999999977796e-01  8.25492009657538272638e-02  2.52381938975476671772e-06 5
3.74999999999999986122e-02  3.18749999999999977796e-01  9.89889469477603090031e-02  3.07479739139471242027e-06 5
4.37499999999999972244e-02  3.18749999999999977796e-01  1.15390515738523352640e-01  3.63965785439568367821e-06 5
5.00000000000000027756e-02  3.18749999999999977796e-01  1.31747584652025101493e-01  4.21775204526020353057e-06 5
5.62500000000000013878e-02  3.18749999999999977796e-01  1.48053848150250466631e-01  4.80843367550720657277e-06 5
6.25000000000000000000e-02  3.18749999999999977796e-01  1.64303020274011724045e-01  5.41105923135276611902e-06 5
6.87500000000000055511e-02  3.18749999999999977796e-01  1.80488837066231366801e-01  6.02498829591069373635e-06 5
7.49999999999999972244e-02  3.18749999999999977796e-01  1.96605058986750264038e-01  6.64958386234482112798e-06 5
8.12500000000000027756e-02  3.18749999999999977796e-01  2.12645473317730399065e-01  7.28421263862522039290e-06 5
8.74999999999999944489e-02  3.18749999999999977796e-01  2.28603896558730756983e-01  7.92824533643599060895e-06 5
9.37500000000000000000e-02  3.18749999999999977796e-01  2.44474176810524912451e-01  8.58105695336619511693e-06 5
1.00000000000000005551e-01  3.18749999999999977796e-01  2.60250196146747991843e-01  9.24202704144505560180e-06 5
1.06249999999999997224e-01  3.18749999999999977796e-01  2.75925872972459074184e-01  9.91053996063362419022e-06 5
1.12500000000000002776e-01  3.18749999999999977796e-01  2.91495164368703485458e-01  1.05859851246559166782e-05 5
1.18749999999999994449e-01  3.18749999999999977796e-01  3.06952068422180313068e-01  1.12677572292052552427e-05 5
1.25000000000000000000e-01  3.18749999999999977796e-01  3.22290626539115498961e-01  1.19552564640246217209e-05 5
1.31250000000000005551e-01  3.18749999999999977796e-01  3.37504925742433292690e-01  1.26478887238490322886e-05 5
1.37500000000000011102e-01  3.18749999999999977796e-01  3.52589100951360867597e-01  1.33450657983646969740e-05 5
1.43749999999999988898e-01  3.18749999999999977796e-01  3.67537337242584249974e-01  1.40462055429613208446e-05 5
1.49999999999999994449e-01  3.18749999999999977796e-01  3.82343872092067549318e-01  1.47507320479856041118e-05 5
1.56250000000000000000e-01  3.18749999999999977796e-01  3.97002997596681839187e-01  1.54580757941724655780e-05 5
1.62500000000000005551e-01  3.18749999999999977796e-01  4.11509062674793701930e-01  1.61676737892024746657e-05 5
1.68750000000000011102e-01  3.18749999999999977796e-01  4.25856475244949628234e-01  1.68789696998739024991e-05 5
1.74999999999999988898e-01  3.18749999999999977796e-01  4.40039704381826157764e-01  1.75914139702859628756e-05 5
1.81249999999999994449e-01  3.18749999999999977796e-01  4.54053282448613260147e-01  1.83044639272544884534e-05 5
1.87500000000000000000e-01  3.18749999999999977796e-01  4.67891807204996568181e-01  1.90175838854500511843e-05 5
1.93750000000000005551e-01  3.18749999999999977796e-01  4.81549943889948928177e-01  1.97302452286662877157e-05 5
2.00000000000000011102e-01  3.18749999999999977796e-01  4.95022427278503596160e-01  2.04419264926425370277e-05 5
2.06249999999999988898e-01  3.18749999999999977796e-01  5.08304063711728537633e-01  2.11521134358960694044e-05 5
2.12499999999999994449e-01  3.18749999999999977796e-01  5.21389733099112184789e-01  2.18602991070016017261e-05 5
2.18750000000000000000e-01  3.18749999999999977796e-01  5.34274390892600647973e-01  2.25659838948288893334e-05 5
2.25000000000000005551e-01  3.18749999999999977796e-01  5.46953070031509946958e-01  2.32686755784472509845e-05 5
2.31250000000000011102e-01  3.18749999999999977796e-01  5.59420882857561418966e-01  2.39678893776407164751e-05 5
2.37499999999999988898e-01  3.18749999999999977796e-01  5.71673022999322655302e-01  2.46631479843273382357e-05 5
2.43749999999999994449e-01  3.18749999999999977796e-01  5.83704767225310727774e-01  2.53539815916470345769e-05 5
2.50000000000000000000e-01  3.18749999999999977796e-01  5.95511477265036281992e-01  2.60399279251588566808e-05 5
2.56249999999999977796e-01  3.18749999999999977796e-01  6.07088601597299382107e-01  2.67205322683761181679e-05 5
2.62500000000000011102e-01  3.18749999999999977796e-01  6.18431677205051433255e-01  2.73953474733135138308e-05 5
2.68749999999999988898e-01  3.18749999999999977796e-01  6.29536331296126183688e-01  2.80639339796939779603e-05 5
2.75000000000000022204e-01  3.18749999999999977796e-01  6.40398282989195433146e-01  2.87258598243855800547e-05 5
2.81250000000000000000e-01  3.18749999999999977796e-01  6.51013344964286977401e-01  2.93807006498392198068e-05 5
2.87499999999999977796e-01  3.18749999999999977796e-01  6.61377425077233072059e-01  3.00280397119712105791e-05 5
2.93750000000000011102e-01  3.18749999999999977796e-01  6.71486527937438570923e-01  3.06674678718366067187e-05 5
2.99999999999999988898e-01  3.18749999999999977796e-01  6.81336756448325697733e-01  3.12985836069534784087e-05 5
3.06250000000000022204e-01  3.18749999999999977796e-01  6.90924313309899895685e-01  3.19209930064179303599e-05 5
3.12500000000000000000e-01  3.18749999999999977796e-01  7.00245502482841009062e-01  3.25343097618002730087e-05 5
3.18749999999999977796e-01  3.18749999999999977796e-01  7.09296730613547365962e-01  3.31381551664788887024e-05 5
3.25000000000000011102e-01  3.18749999999999977796e-01  7.18074508419600632259e-01  3.37321581026506223111e-05 5
3.31249999999999988898e-01  3.18749999999999977796e-01  7.26575452035096880365e-01  3.43159550377780675490e-05 5
3.37500000000000022204e-01  3.18749999999999977796e-01  7.34796284315351044825e-01  3.48891900056047532530e-05 5
3.43750000000000000000e-01  3.18749999999999977796e-01  7.42733836100435862448e-01  3.54515146053779872659e-05 5
3.49999999999999977796e-01  3.18749999999999977796e-01  7.50385047437113539281e-01  3.60025879769798606844e-05 5
3.56250000000000011102e-01  3.18749999999999977796e-01  7.57746968758646111120e-01  3.65420767913793298476e-05 5
3.62499999999999988898e-01  3.18749999999999977796e-01  7.64816762022051954695e-01  3.70696552366434062264e-05 5
3.68750000000000022204e-01  3.18749999999999977796e-01  7.71591701802373686192e-01  3.75850049961767851414e-05 5
3.75000000000000000000e-01  3.18749999999999977796e-01  7.78069176343521351491e-01  3.80878152305141881584e-05 5
3.81249999999999977796e-01  3.18749999999999977796e-01  7.84246688565286120820e-01  3.85777825654409767253e-05 5
3.87500000000000011102e-01  3.18749999999999977796e-01  7.90121857026164997606e-01  3.90546110567990822915e-05 5
3.93749999999999988898e-01  3.18749999999999977796e-01  7.95692416841571104058e-01  3.95180121840477127648e-05 5
4.00000000000000022204e-01  3.18749999999999977796e-01  8.00956220557134668248e-01  3.99677048178448401927e-05 5
4.06250000000000000000e-01  3.18749999999999977796e-01  8.05911238976717569926e-01  4.04034151978427402696e-05 5
4.12499999999999977796e-01  3.18749999999999977796e-01  8.10555561944837577038e-01  4.08248769075969519804e-05 5
4.18750000000000011102e-01  3.18749999999999977796e-01  8.14887399083201180439e-01  4.12318308463666127750e-05 5
4.24999999999999988898e-01  3.18749999999999977796e-01  8.18905080481052372043e-01  4.16240252044675074217e-05 5
4.31250000000000022204e-01  3.18749999999999977796e-01  8.22607057339091674031e-01  4.20012154240811952377e-05 5
4.37500000000000000000e-01  3.18749999999999977796e-01  8.25991902566682756337e-01  4.23631641782717949241e-05 5
4.43749999999999977796e-01  3.18749999999999977796e-01  8.29058311332152908513e-01  4.27096413331273794256e-05 5
4.50000000000000011102e-01  3.18749999999999977796e-01  8.31805101565951887643e-01  4.30404239143422628899e-05 5
4.56249999999999988898e-01  3.18749999999999977796e-01  8.34231214416487953933e-01  4.33552960680261278981e-05 5
4.62500000000000022204e-01  3.18749999999999977796e-01  8.36335714658453244219e-01  4.36540490258430224912e-05 5
4.68750000000000000000e-01  3.18749999999999977796e-01  8.38117791053490712727e-01  4.39364810654874204943e-05 5
4.74999999999999977796e-01  3.18749999999999977796e-01  8.39576756663067746977e-01  4.42023974631666760615e-05 5
4.81250000000000011102e-01  3.18749999999999977796e-01  8.40712049113415238466e-01  4.44516104569636638644e-05 5
4.87499999999999988898e-01  3.18749999999999977796e-01  8.41523230812464495543e-01  4.46839391881059810885e-05 5
4.93750000000000022204e-01  3.18749999999999977796e-01  8.42009989118651991369e-01  4.48992096665490336704e-05 5
5.00000000000000000000e-01  3.18749999999999977796e-01  8.42172136461570297605e-01  4.50972547161310188812e-05 5
5.06249999999999977796e-01  3.18749999999999977796e-01  8.42009610414402587253e-01  4.52779139159531496261e-05 5
5.12499999999999955591e-01  3.18749999999999977796e-01  8.41522473718104180307e-01  4.54410335484212168922e-05 5
5.18750000000000044409e-01  3.18749999999999977796e-01  8.40710914257332686539e-01  4.55864665395155910232e-05 5
5.25000000000000022204e-01  3.18749999999999977796e-01  8.39575244988134294921e-01  4.57140723966187323413e-05 5
5.31250000000000000000e-01  3.18749999999999977796e-01  8.38115903817405860643e-01  4.58237171504505269581e-05 5
5.37499999999999977796e-01  3.18749999999999977796e-01  8.36333453434198070831e-01  4.59152732810164110333e-05 5
5.43749999999999955591e-01  3.18749999999999977796e-01  8.34228581092904653005e-01  4.59886196513270562036e-05 5
5.50000000000000044409e-01  3.18749999999999977796e-01  8.31802098348432106256e-01  4.60436414340126276556e-05 5
5.56250000000000022204e-01  3.18749999999999977796e-01  8.29054940743441437512e-01  4.60802300445983803456e-05 5
5.62500000000000000000e-01  3.18749999999999977796e-01  8.25988167447818666389e-01  4.60982830423617429005e-05 5
5.68749999999999977796e-01  3.18749999999999977796e-01  8.22602960850447373353e-01  4.60977040683818728439e-05 5
5.74999999999999955591e-01  3.18749999999999977796e-01  8.18900626103509443610e-01  4.60784027473959412191e-05 5
5.81250000000000044409e-01  3.18749999999999977796e-01  8.14882590619439239887e-01  4.60402946083071640260e-05 5
5.87500000000000022204e-01  3.18749999999999977796e-01  8.10550403520759354947e-01  4.59833009858190422392e-05 5
5.93750000000000000000e-01  3.18749999999999977796e-01  8.05905735042984905370e-01  4.59073489305072968136e-05 5
5.99999999999999977796e-01  3.18749999999999977796e-01  8.00950375890848942362e-01  4.58123711036817482523e-05 5
6.06249999999999955591e-01  3.18749999999999977796e-01  7.95686236548078240638e-01  4.56983056769111328776e-05 5
6.12500000000000044409e-01  3.18749999999999977796e-01  7.90115346540992358193e-01  4.55650962293274730541e-05 5
6.18750000000000022204e-01  3.18749999999999977796e-01  7.84239853656213736777e-01  4.54126916379360423548e-05 5
6.25000000000000000000e-01  3.18749999999999977796e-01  7.78062023112788492263e-01  4.52410459633734163276e-05 5
6.31249999999999977796e-01  3.18749999999999977796e-01  7.71584236689042635149e-01  4.50501183272278282743e-05 5
6.37499999999999955591e-01  3.18749999999999977796e-01  7.64808991804484916699e-01  4.48398728039034466519e-05 5