Titile = 'Poisson'  
VARIABLES = X, Y, U, Error, Rank 
zone N= 3381, E = 6400
DATAPACKING=POINT, ZONETYPE=FETRIANGLE
0.00000000000000000000e+00  0.00000000000000000000e+00  0.00000000000000000000e+00  0.00000000000000000000e+00 0
6.25000000000000034694e-03  0.00000000000000000000e+00  0.00000000000000000000e+00  0.00000000000000000000e+00 0
1.25000000000000006939e-02  0.00000000000000000000e+00  0.00000000000000000000e+00  0.00000000000000000000e+00 0
1.87499999999999993061e-02  0.00000000000000000000e+00  0.00000000000000000000e+00  0.00000000000000000000e+00 0
2.50000000000000013878e-02  0.00000000000000000000e+00  0.00000000000000000000e+00  0.00000000000000000000e+00 0
3.12500000000000000000e-02  0.00000000000000000000e+00  0.00000000000000000000e+00  0.00000000000000000000e+00 0
3.74999999999999986122e-02  0.00000000000000000000e+00  0.00000000000000000000e+00  0.00000000000000000000e+00 0
4.37499999999999972244e-02  0.00000000000000000000e+00  0.00000000000000000000e+00  0.00000000000000000000e+00 0
5.00000000000000027756e-02  0.00000000000000000000e+00  0.00000000000000000000e+00  0.00000000000000000000e+00 0
5.62500000000000013878e-02  0.00000000000000000000e+00  0.00000000000000000000e+00  0.00000000000000000000e+00 0
6.25000000000000000000e-02  0.00000000000000000000e+00  0.00000000000000000000e+00  0.00000000000000000000e+00 0
6.87500000000000055511e-02  0.00000000000000000000e+00  0.00000000000000000000e+00  0.00000000000000000000e+00 0
7.49999999999999972244e-02  0.00000000000000000000e+00  0.00000000000000000000e+00  0.00000000000000000000e+00 0
8.12500000000000027756e-02  0.00000000000000000000e+00  0.00000000000000000000e+00  0.00000000000000000000e+00 0
8.74999999999999944489e-02  0.00000000000000000000e+00  0.00000000000000000000e+00  0.00000000000000000000e+00 0
9.37500000000000000000e-02  0.00000000000000000000e+00  0.00000000000000000000e+00  0.00000000000000000000e+00 0
1.00000000000000005551e-01  0.00000000000000000000e+00  0.00000000000000000000e+00  0.00000000000000000000e+00 0
1.06249999999999997224e-01  0.00000000000000000000e+00  0.00000000000000000000e+00  0.00000000000000000000e+00 0
1.12500000000000002776e-01  0.00000000000000000000e+00  0.00000000000000000000e+00  0.00000000000000000000e+00 0
1.18749999999999994449e-01  0.00000000000000000000e+00  0.00000000000000000000e+00  0.00000000000000000000e+00 0
1.25000000000000000000e-01  0.00000000000000000000e+00  0.00000000000000000000e+00  0.00000000000000000000e+00 0
1.31250000000000005551e-01  0.00000000000000000000e+00  0.00000000000000000000e+00  0.00000000000000000000e+00 0
1.37500000000000011102e-01  0.00000000000000000000e+00  0.00000000000000000000e+00  0.00000000000000000000e+00 0
1.43749999999999988898e-01  0.00000000000000000000e+00  0.00000000000000000000e+00  0.00000000000000000000e+00 0
1.49999999999999994449e-01  0.00000000000000000000e+00  0.00000000000000000000e+00  0.00000000000000000000e+00 0
1.56250000000000000000e-01  0.00000000000000000000e+00  0.00000000000000000000e+00  0.00000000000000000000e+00 0
1.62500000000000005551e-01  0.00000000000000000000e+00  0.00000000000000000000e+00  0.00000000000000000000e+00 0
1.68750000000000011102e-01  0.00000000000000000000e+00  0.00000000000000000000e+00  0.00000000000000000000e+00 0
1.74999999999999988898e-01  0.00000000000000000000e+00  0.00000000000000000000e+00  0.00000000000000000000e+00 0
1.81249999999999994449e-01  0.00000000000000000000e+00  0.00000000000000000000e+00  0.00000000000000000000e+00 0
1.87500000000000000000e-01  0.00000000000000000000e+00  0.00000000000000000000e+00  0.00000000000000000000e+00 0
1.93750000000000005551e-01  0.00000000000000000000e+00  0.00000000000000000000e+00  0.00000000000000000000e+00 0
2.00000000000000011102e-01  0.00000000000000000000e+00  0.00000000000000000000e+00  0.00000000000000000000e+00 0
2.06249999999999988898e-01  0.00000000000000000000e+00  0.00000000000000000000e+00  0.00000000000000000000e+00 0
2.12499999999999994449e-01  0.00000000000000000000e+00  0.00000000000000000000e+00  0.00000000000000000000e+00 0
2.18750000000000000000e-01  0.00000000000000000000e+00  0.00000000000000000000e+00  0.00000000000000000000e+00 0
2.25000000000000005551e-01  0.00000000000000000000e+00  0.00000000000000000000e+00  0.00000000000000000000e+00 0
2.31250000000000011102e-01  0.00000000000000000000e+00  0.00000000000000000000e+00  0.00000000000000000000e+00 0
2.37499999999999988898e-01  0.00000000000000000000e+00  0.00000000000000000000e+00  0.00000000000000000000e+00 0
2.43749999999999994449e-01  0.00000000000000000000e+00  0.00000000000000000000e+00  0.00000000000000000000e+00 0
2.50000000000000000000e-01  0.00000000000000000000e+00  0.00000000000000000000e+00  0.00000000000000000000e+00 0
2.56249999999999977796e-01  0.00000000000000000000e+00  0.00000000000000000000e+00  0.00000000000000000000e+00 0
2.62500000000000011102e-01  0.00000000000000000000e+00  0.00000000000000000000e+00  0.00000000000000000000e+00 0
2.68749999999999988898e-01  0.00000000000000000000e+00  0.00000000000000000000e+00  0.00000000000000000000e+00 0
2.75000000000000022204e-01  0.00000000000000000000e+00  0.00000000000000000000e+00  0.00000000000000000000e+00 0
2.81250000000000000000e-01  0.00000000000000000000e+00  0.00000000000000000000e+00  0.00000000000000000000e+00 0
2.87499999999999977796e-01  0.00000000000000000000e+00  0.00000000000000000000e+00  0.00000000000000000000e+00 0
2.93750000000000011102e-01  0.00000000000000000000e+00  0.00000000000000000000e+00  0.00000000000000000000e+00 0
2.99999999999999988898e-01  0.00000000000000000000e+00  0.00000000000000000000e+00  0.00000000000000000000e+00 0
3.06250000000000022204e-01  0.00000000000000000000e+00  0.00000000000000000000e+00  0.00000000000000000000e+00 0
3.12500000000000000000e-01  0.00000000000000000000e+00  0.00000000000000000000e+00  0.00000000000000000000e+00 0
3.18749999999999977796e-01  0.00000000000000000000e+00  0.00000000000000000000e+00  0.00000000000000000000e+00 0
3.25000000000000011102e-01  0.00000000000000000000e+00  0.00000000000000000000e+00  0.00000000000000000000e+00 0
3.31249999999999988898e-01  0.00000000000000000000e+00  0.00000000000000000000e+00  0.00000000000000000000e+00 0
3.37500000000000022204e-01  0.00000000000000000000e+00  0.00000000000000000000e+00  0.00000000000000000000e+00 0
3.43750000000000000000e-01  0.00000000000000000000e+00  0.00000000000000000000e+00  0.00000000000000000000e+00 0
3.49999999999999977796e-01  0.00000000000000000000e+00  0.00000000000000000000e+00  0.00000000000000000000e+00 0
3.56250000000000011102e-01  0.00000000000000000000e+00  0.00000000000000000000e+00  0.00000000000000000000e+00 0
3.62499999999999988898e-01  0.00000000000000000000e+00  0.00000000000000000000e+00  0.00000000000000000000e+00 0
3.68750000000000022204e-01  0.00000000000000000000e+00  0.00000000000000000000e+00  0.00000000000000000000e+00 0
3.75000000000000000000e-01  0.00000000000000000000e+00  0.00000000000000000000e+00  0.00000000000000000000e+00 0
3.81249999999999977796e-01  0.00000000000000000000e+00  0.00000000000000000000e+00  0.00000000000000000000e+00 0
3.87500000000000011102e-01  0.00000000000000000000e+00  0.00000000000000000000e+00  0.00000000000000000000e+00 0
3.93749999999999988898e-01  0.00000000000000000000e+00  0.00000000000000000000e+00  0.00000000000000000000e+00 0
4.00000000000000022204e-01  0.00000000000000000000e+00  0.00000000000000000000e+00  0.00000000000000000000e+00 0
4.06250000000000000000e-01  0.00000000000000000000e+00  0.00000000000000000000e+00  0.00000000000000000000e+00 0
4.12499999999999977796e-01  0.00000000000000000000e+00  0.00000000000000000000e+00  0.00000000000000000000e+00 0
4.18750000000000011102e-01  0.00000000000000000000e+00  0.00000000000000000000e+00  0.00000000000000000000e+00 0
4.24999999999999988898e-01  0.00000000000000000000e+00  0.00000000000000000000e+00  0.00000000000000000000e+00 0
4.31250000000000022204e-01  0.00000000000000000000e+00  0.00000000000000000000e+00  0.00000000000000000000e+00 0
4.37500000000000000000e-01  0.00000000000000000000e+00  0.00000000000000000000e+00  0.00000000000000000000e+00 0
4.43749999999999977796e-01  0.00000000000000000000e+00  0.00000000000000000000e+00  0.00000000000000000000e+00 0
4.50000000000000011102e-01  0.00000000000000000000e+00  0.00000000000000000000e+00  0.00000000000000000000e+00 0
4.56249999999999988898e-01  0.00000000000000000000e+00  0.00000000000000000000e+00  0.00000000000000000000e+00 0
4.62500000000000022204e-01  0.00000000000000000000e+00  0.00000000000000000000e+00  0.00000000000000000000e+00 0
4.68750000000000000000e-01  0.00000000000000000000e+00  0.00000000000000000000e+00  0.00000000000000000000e+00 0
4.74999999999999977796e-01  0.00000000000000000000e+00  0.00000000000000000000e+00  0.00000000000000000000e+00 0
4.81250000000000011102e-01  0.00000000000000000000e+00  0.00000000000000000000e+00  0.00000000000000000000e+00 0
4.87499999999999988898e-01  0.00000000000000000000e+00  0.00000000000000000000e+00  0.00000000000000000000e+00 0
4.93750000000000022204e-01  0.00000000000000000000e+00  0.00000000000000000000e+00  0.00000000000000000000e+00 0
5.00000000000000000000e-01  0.00000000000000000000e+00  0.00000000000000000000e+00  0.00000000000000000000e+00 0
5.06249999999999977796e-01  0.00000000000000000000e+00  0.00000000000000000000e+00  0.00000000000000000000e+00 0
5.12499999999999955591e-01  0.00000000000000000000e+00  0.00000000000000000000e+00  0.00000000000000000000e+00 0
5.18750000000000044409e-01  0.00000000000000000000e+00  0.00000000000000000000e+00  0.00000000000000000000e+00 0
5.25000000000000022204e-01  0.00000000000000000000e+00  0.00000000000000000000e+00  0.00000000000000000000e+00 0
5.31250000000000000000e-01  0.00000000000000000000e+00  0.00000000000000000000e+00  0.00000000000000000000e+00 0
5.37499999999999977796e-01  0.00000000000000000000e+00  0.00000000000000000000e+00  0.00000000000000000000e+00 0
5.43749999999999955591e-01  0.00000000000000000000e+00  0.00000000000000000000e+00  0.00000000000000000000e+00 0
5.50000000000000044409e-01  0.00000000000000000000e+00  0.00000000000000000000e+00  0.00000000000000000000e+00 0
5.56250000000000022204e-01  0.00000000000000000000e+00  0.00000000000000000000e+00  0.00000000000000000000e+00 0
5.62500000000000000000e-01  0.00000000000000000000e+00  0.00000000000000000000e+00  0.00000000000000000000e+00 0
5.68749999999999977796e-01  0.00000000000000000000e+00  0.00000000000000000000e+00  0.00000000000000000000e+00 0
5.74999999999999955591e-01  0.00000000000000000000e+00  0.00000000000000000000e+00  0.00000000000000000000e+00 0
5.81250000000000044409e-01  0.00000000000000000000e+00  0.00000000000000000000e+00  0.00000000000000000000e+00 0
5.87500000000000022204e-01  0.00000000000000000000e+00  0.00000000000000000000e+00  0.00000000000000000000e+00 0
5.93750000000000000000e-01  0.00000000000000000000e+00  0.00000000000000000000e+00  0.00000000000000000000e+00 0
5.99999999999999977796e-01  0.00000000000000000000e+00  0.00000000000000000000e+00  0.00000000000000000000e+00 0
6.06249999999999955591e-01  0.00000000000000000000e+00  0.00000000000000000000e+00  0.00000000000000000000e+00 0
6.12500000000000044409e-01  0.00000000000000000000e+00  0.00000000000000000000e+00  0.00000000000000000000e+00 0
6.18750000000000022204e-01  0.00000000000000000000e+00  0.00000000000000000000e+00  0.00000000000000000000e+00 0
6.25000000000000000000e-01  0.00000000000000000000e+00  0.00000000000000000000e+00  0.00000000000000000000e+00 0
6.31249999999999977796e-01  0.00000000000000000000e+00  0.00000000000000000000e+00  0.00000000000000000000e+00 0
6.37499999999999955591e-01  0.00000000000000000000e+00  0.00000000000000000000e+00  0.00000000000000000000e+00 0
6.43750000000000044409e-01  0.00000000000000000000e+00  0.00000000000000000000e+00  0.00000000000000000000e+00 0
6.50000000000000022204e-01  0.00000000000000000000e+00  0.00000000000000000000e+00  0.00000000000000000000e+00 0
6.56250000000000000000e-01  0.00000000000000000000e+00  0.00000000000000000000e+00  0.00000000000000000000e+00 0
6.62499999999999977796e-01  0.00000000000000000000e+00  0.00000000000000000000e+00  0.00000000000000000000e+00 0
6.68749999999999955591e-01  0.00000000000000000000e+00  0.00000000000000000000e+00  0.00000000000000000000e+00 0
6.75000000000000044409e-01  0.00000000000000000000e+00  0.00000000000000000000e+00  0.00000000000000000000e+00 0
6.81250000000000022204e-01  0.00000000000000000000e+00  0.00000000000000000000e+00  0.00000000000000000000e+00 0
6.87500000000000000000e-01  0.00000000000000000000e+00  0.00000000000000000000e+00  0.00000000000000000000e+00 0
6.93749999999999977796e-01  0.00000000000000000000e+00  0.00000000000000000000e+00  0.00000000000000000000e+00 0
6.99999999999999955591e-01  0.00000000000000000000e+00  0.00000000000000000000e+00  0.00000000000000000000e+00 0
7.06250000000000044409e-01  0.00000000000000000000e+00  0.00000000000000000000e+00  0.00000000000000000000e+00 0
7.12500000000000022204e-01  0.00000000000000000000e+00  0.00000000000000000000e+00  0.00000000000000000000e+00 0
7.18750000000000000000e-01  0.00000000000000000000e+00  0.00000000000000000000e+00  0.00000000000000000000e+00 0
7.24999999999999977796e-01  0.00000000000000000000e+00  0.00000000000000000000e+00  0.00000000000000000000e+00 0
7.31249999999999955591e-01  0.00000000000000000000e+00  0.00000000000000000000e+00  0.00000000000000000000e+00 0
7.37500000000000044409e-01  0.00000000000000000000e+00  0.00000000000000000000e+00  0.00000000000000000000e+00 0
7.43750000000000022204e-01  0.00000000000000000000e+00  0.00000000000000000000e+00  0.00000000000000000000e+00 0
7.50000000000000000000e-01  0.00000000000000000000e+00  0.00000000000000000000e+00  0.00000000000000000000e+00 0
7.56249999999999977796e-01  0.00000000000000000000e+00  0.00000000000000000000e+00  0.00000000000000000000e+00 0
7.62499999999999955591e-01  0.00000000000000000000e+00  0.00000000000000000000e+00  0.00000000000000000000e+00 0
7.68750000000000044409e-01  0.00000000000000000000e+00  0.00000000000000000000e+00  0.00000000000000000000e+00 0
7.75000000000000022204e-01  0.00000000000000000000e+00  0.00000000000000000000e+00  0.00000000000000000000e+00 0
7.81250000000000000000e-01  0.00000000000000000000e+00  0.00000000000000000000e+00  0.00000000000000000000e+00 0
7.87499999999999977796e-01  0.00000000000000000000e+00  0.00000000000000000000e+00  0.00000000000000000000e+00 0
7.93749999999999955591e-01  0.00000000000000000000e+00  0.00000000000000000000e+00  0.00000000000000000000e+00 0
8.00000000000000044409e-01  0.00000000000000000000e+00  0.00000000000000000000e+00  0.00000000000000000000e+00 0
8.06250000000000022204e-01  0.00000000000000000000e+00  0.00000000000000000000e+00  0.00000000000000000000e+00 0
8.12500000000000000000e-01  0.00000000000000000000e+00  0.00000000000000000000e+00  0.00000000000000000000e+00 0
8.18749999999999977796e-01  0.00000000000000000000e+00  0.00000000000000000000e+00  0.00000000000000000000e+00 0
8.24999999999999955591e-01  0.00000000000000000000e+00  0.00000000000000000000e+00  0.00000000000000000000e+00 0
8.31250000000000044409e-01  0.00000000000000000000e+00  0.00000000000000000000e+00  0.00000000000000000000e+00 0
8.37500000000000022204e-01  0.00000000000000000000e+00  0.00000000000000000000e+00  0.00000000000000000000e+00 0
8.43750000000000000000e-01  0.00000000000000000000e+00  0.00000000000000000000e+00  0.00000000000000000000e+00 0
8.49999999999999977796e-01  0.00000000000000000000e+00  0.00000000000000000000e+00  0.00000000000000000000e+00 0
8.56249999999999955591e-01  0.00000000000000000000e+00  0.00000000000000000000e+00  0.00000000000000000000e+00 0
8.62500000000000044409e-01  0.00000000000000000000e+00  0.00000000000000000000e+00  0.00000000000000000000e+00 0
8.68750000000000022204e-01  0.00000000000000000000e+00  0.00000000000000000000e+00  0.00000000000000000000e+00 0
8.75000000000000000000e-01  0.00000000000000000000e+00  0.00000000000000000000e+00  0.00000000000000000000e+00 0
8.81249999999999977796e-01  0.00000000000000000000e+00  0.00000000000000000000e+00  0.00000000000000000000e+00 0
8.87499999999999955591e-01  0.00000000000000000000e+00  0.00000000000000000000e+00  0.00000000000000000000e+00 0
8.93750000000000044409e-01  0.00000000000000000000e+00  0.00000000000000000000e+00  0.00000000000000000000e+00 0
9.00000000000000022204e-01  0.00000000000000000000e+00  0.00000000000000000000e+00  0.00000000000000000000e+00 0
9.06250000000000000000e-01  0.00000000000000000000e+00  0.00000000000000000000e+00  0.00000000000000000000e+00 0
9.12499999999999977796e-01  0.00000000000000000000e+00  0.00000000000000000000e+00  0.00000000000000000000e+00 0
9.18749999999999955591e-01  0.00000000000000000000e+00  0.00000000000000000000e+00  0.00000000000000000000e+00 0
9.25000000000000044409e-01  0.00000000000000000000e+00  0.00000000000000000000e+00  0.00000000000000000000e+00 0
9.31250000000000022204e-01  0.00000000000000000000e+00  0.00000000000000000000e+00  0.00000000000000000000e+00 0
9.37500000000000000000e-01  0.00000000000000000000e+00  0.00000000000000000000e+00  0.00000000000000000000e+00 0
9.43749999999999977796e-01  0.00000000000000000000e+00  0.00000000000000000000e+00  0.00000000000000000000e+00 0
9.49999999999999955591e-01  0.00000000000000000000e+00  0.00000000000000000000e+00  0.00000000000000000000e+00 0
9.56250000000000044409e-01  0.00000000000000000000e+00  0.00000000000000000000e+00  0.00000000000000000000e+00 0
9.62500000000000022204e-01  0.00000000000000000000e+00  0.00000000000000000000e+00  0.00000000000000000000e+00 0
9.68750000000000000000e-01  0.00000000000000000000e+00  0.00000000000000000000e+00  0.00000000000000000000e+00 0
9.74999999999999977796e-01  0.00000000000000000000e+00  0.00000000000000000000e+00  0.00000000000000000000e+00 0
9.81249999999999955591e-01  0.00000000000000000000e+00  0.00000000000000000000e+00  0.00000000000000000000e+00 0
9.87500000000000044409e-01  0.00000000000000000000e+00  0.00000000000000000000e+00  0.00000000000000000000e+00 0
9.93750000000000022204e-01  0.00000000000000000000e+00  0.00000000000000000000e+00  0.00000000000000000000e+00 0
1.00000000000000000000e+00  0.00000000000000000000e+00  0.00000000000000000000e+00  0.00000000000000000000e+00 0
0.00000000000000000000e+00  6.25000000000000034694e-03  0.00000000000000000000e+00  0.00000000000000000000e+00 0
6.25000000000000034694e-03  6.25000000000000034694e-03  3.85983611687997787108e-04  5.01732049465236553537e-07 0
1.25000000000000006939e-02  6.25000000000000034694e-03  7.92432420352306488877e-04  2.16172716778250187386e-05 0
1.87499999999999993061e-02  6.25000000000000034694e-03  1.17742700352005662950e-03  2.15757497225774457633e-05 0
2.50000000000000013878e-02  6.25000000000000034694e-03  1.56196766616460724388e-03  2.15259099051038401557e-05 0
3.12500000000000000000e-02  6.25000000000000034694e-03  1.94590616054043539715e-03  2.14677714395952040638e-05 0
3.74999999999999986122e-02  6.25000000000000034694e-03  2.32909447104936084480e-03  2.14013567395418720374e-05 0
4.37499999999999972244e-02  6.25000000000000034694e-03  2.71138487130334311995e-03  2.13266914090588094455e-05 0
5.00000000000000027756e-02  6.25000000000000034694e-03  3.09262998107588714738e-03  2.12438042330848585182e-05 0
5.62500000000000013878e-02  6.25000000000000034694e-03  3.47268282311981009783e-03  2.11527271661718710427e-05 0
6.25000000000000000000e-02  6.25000000000000034694e-03  3.85139687982987777640e-03  2.10534953202731224542e-05 0
6.87500000000000055511e-02  6.25000000000000034694e-03  4.22862614972809719438e-03  2.09461469511734374449e-05 0
7.49999999999999972244e-02  6.25000000000000034694e-03  4.60422520374999689335e-03  2.08307234436768198838e-05 0
8.12500000000000027756e-02  6.25000000000000034694e-03  4.97804924131044733426e-03  2.07072692957905452049e-05 0
8.74999999999999944489e-02  6.25000000000000034694e-03  5.34995414612681515626e-03  2.05758321013523384768e-05 0
9.37500000000000000000e-02  6.25000000000000034694e-03  5.71979654177886837757e-03  2.04364625320113679763e-05 0
1.00000000000000005551e-01  6.25000000000000034694e-03  6.08743384698276664146e-03  2.02892143173439773451e-05 0
1.06249999999999997224e-01  6.25000000000000034694e-03  6.45272433055901501603e-03  2.01341442242972123999e-05 0
1.12500000000000002776e-01  6.25000000000000034694e-03  6.81552716607262878273e-03  1.99713120353998269119e-05 0
1.18749999999999994449e-01  6.25000000000000034694e-03  7.17570248612422675882e-03  1.98007805255386720722e-05 0
1.25000000000000000000e-01  6.25000000000000034694e-03  7.53311143627169183673e-03  1.96226154378685915813e-05 0
1.31250000000000005551e-01  6.25000000000000034694e-03  7.88761622856112322444e-03  1.94368854583952532789e-05 0
1.37500000000000011102e-01  6.25000000000000034694e-03  8.23908019464683963329e-03  1.92436621896142912025e-05 0
1.43749999999999988898e-01  6.25000000000000034694e-03  8.58736783847942504455e-03  1.90430201227088924387e-05 0
1.49999999999999994449e-01  6.25000000000000034694e-03  8.93234488854227626220e-03  1.88350366090630355620e-05 0
1.56250000000000000000e-01  6.25000000000000034694e-03  9.27387834961563434222e-03  1.86197918302620502029e-05 0
1.62500000000000005551e-01  6.25000000000000034694e-03  9.61183655404884706996e-03  1.83973687672440294749e-05 0
1.68750000000000011102e-01  6.25000000000000034694e-03  9.94608921252084464404e-03  1.81678531683999999746e-05 0
1.74999999999999988898e-01  6.25000000000000034694e-03  1.02765074642689330231e-02  1.79313335163001907890e-05 0
1.81249999999999994449e-01  6.25000000000000034694e-03  1.06029639267671439012e-02  1.76879009936535547265e-05 0
1.87500000000000000000e-01  6.25000000000000034694e-03  1.09253327448351252732e-02  1.74376494486531974371e-05 0
1.93750000000000005551e-01  6.25000000000000034694e-03  1.12434896391566604978e-02  1.71806753577561505120e-05 0
2.00000000000000011102e-01  6.25000000000000034694e-03  1.15573119541927463172e-02  1.69170777895126522861e-05 0
2.06249999999999988898e-01  6.25000000000000034694e-03  1.18666787054670184315e-02  1.66469583657707920210e-05 0
2.12499999999999994449e-01  6.25000000000000034694e-03  1.21714706262077559940e-02  1.63704212226695178245e-05 0
2.18750000000000000000e-01  6.25000000000000034694e-03  1.24715702133275461311e-02  1.60875729705526465674e-05 0
2.25000000000000005551e-01  6.25000000000000034694e-03  1.27668617727228726755e-02  1.57985226527813243935e-05 0
2.31250000000000011102e-01  6.25000000000000034694e-03  1.30572314638764952477e-02  1.55033817037953519646e-05 0
2.37499999999999988898e-01  6.25000000000000034694e-03  1.33425673437450320602e-02  1.52022639060452047222e-05 0
2.43749999999999994449e-01  6.25000000000000034694e-03  1.36227594099151798346e-02  1.48952853461763873311e-05 0
2.50000000000000000000e-01  6.25000000000000034694e-03  1.38976996430117561571e-02  1.45825643702943846813e-05 0
2.56249999999999977796e-01  6.25000000000000034694e-03  1.41672820483410878689e-02  1.42642215381991871448e-05 0
2.62500000000000011102e-01  6.25000000000000034694e-03  1.44314026967543342084e-02  1.39403795772607280723e-05 0
2.68749999999999988898e-01  6.25000000000000034694e-03  1.46899597647135674722e-02  1.36111633345266380690e-05 0
2.75000000000000022204e-01  6.25000000000000034694e-03  1.49428535735473579094e-02  1.32766997292463329039e-05 0
2.81250000000000000000e-01  6.25000000000000034694e-03  1.51899866278784653056e-02  1.29371177036308876440e-05 0
2.87499999999999977796e-01  6.25000000000000034694e-03  1.54312636532096137537e-02  1.25925481725772808739e-05 0
2.93750000000000011102e-01  6.25000000000000034694e-03  1.56665916326553140980e-02  1.22431239748879705509e-05 0
2.99999999999999988898e-01  6.25000000000000034694e-03  1.58958798427990058433e-02  1.18889798194320162050e-05 0
3.06250000000000022204e-01  6.25000000000000034694e-03  1.61190398886717593807e-02  1.15302522363074089196e-05 0
3.12500000000000000000e-01  6.25000000000000034694e-03  1.63359857378271057515e-02  1.11670795210870588132e-05 0
3.18749999999999977796e-01  6.25000000000000034694e-03  1.65466337535112029133e-02  1.07996016845274267482e-05 0
3.25000000000000011102e-01  6.25000000000000034694e-03  1.67509027269033654306e-02  1.04279603955516331215e-05 0
3.31249999999999988898e-01  6.25000000000000034694e-03  1.69487139084266991151e-02  1.00522989297420484167e-05 0
3.37500000000000022204e-01  6.25000000000000034694e-03  1.71399910381043150964e-02  9.67276211084194814660e-06 0
3.43750000000000000000e-01  6.25000000000000034694e-03  1.73246603749628164115e-02  9.28949625874156414973e-06 0
3.49999999999999977796e-01  6.25000000000000034694e-03  1.75026507254558878757e-02  8.90264912810356801032e-06 0
3.56250000000000011102e-01  6.25000000000000034694e-03  1.76738934709170791848e-02  8.51236985772649279447e-06 0
3.62499999999999988898e-01  6.25000000000000034694e-03  1.78383225940063755433e-02  8.11880890582220016150e-06 0
3.68750000000000022204e-01  6.25000000000000034694e-03  1.79958747041679689715e-02  7.72211799881031280002e-06 0
3.75000000000000000000e-01  6.25000000000000034694e-03  1.81464890620644872521e-02  7.32245006883694427025e-06 0
3.81249999999999977796e-01  6.25000000000000034694e-03  1.82901076029924163080e-02  6.91995919402041415047e-06 0
3.87500000000000011102e-01  6.25000000000000034694e-03  1.84266749592723530493e-02  6.51480054428277277623e-06 0
3.93749999999999988898e-01  6.25000000000000034694e-03  1.85561384815866731168e-02  6.10713031390028304735e-06 0
4.00000000000000022204e-01  6.25000000000000034694e-03  1.86784482592850277494e-02  5.69710566945477725476e-06 0
4.06250000000000000000e-01  6.25000000000000034694e-03  1.87935571396181527737e-02  5.28488468156881885385e-06 0
4.12499999999999977796e-01  6.25000000000000034694e-03  1.89014207459226452057e-02  4.87062627044232421269e-06 0
4.18750000000000011102e-01  6.25000000000000034694e-03  1.90019974947247087538e-02  4.45449014029042356100e-06 0
4.24999999999999988898e-01  6.25000000000000034694e-03  1.90952486117726624726e-02  4.03663671905835075293e-06 0
4.31250000000000022204e-01  6.25000000000000034694e-03  1.91811381469863054261e-02  3.61722709773387718357e-06 0
4.37500000000000000000e-01  6.25000000000000034694e-03  1.92596329883147933393e-02  3.19642296667602132665e-06 0
4.43749999999999977796e-01  6.25000000000000034694e-03  1.93307028745018129323e-02  2.77438655311643134205e-06 0
4.50000000000000011102e-01  6.25000000000000034694e-03  1.93943204067546851044e-02  2.35128056145020303269e-06 0
4.56249999999999988898e-01  6.25000000000000034694e-03  1.94504610593022979337e-02  1.92726810568574769000e-06 0
4.62500000000000022204e-01  6.25000000000000034694e-03  1.94991031888556744234e-02  1.50251265195952554699e-06 0
4.68750000000000000000e-01  6.25000000000000034694e-03  1.95402280429468229450e-02  1.07717795047590492175e-06 0
4.74999999999999977796e-01  6.25000000000000034694e-03  1.95738197671627041363e-02  6.51427976922080986810e-07 0
4.81250000000000011102e-01  6.25000000000000034694e-03  1.95998654112531783822e-02  2.25426865011618682288e-07 0
4.87499999999999988898e-01  6.25000000000000034694e-03  1.96183549341275784150e-02  2.00661152784109564351e-07 0
4.93750000000000022204e-01  6.25000000000000034694e-03  1.96292812077219318290e-02  6.26671812369722358582e-07 0
5.00000000000000000000e-01  6.25000000000000034694e-03  1.96326400197502741463e-02  1.05244087802644492591e-06 0
5.06249999999999977796e-01  6.25000000000000034694e-03  1.96284300753270142537e-02  1.47780420728729766644e-06 0
5.12499999999999955591e-01  6.25000000000000034694e-03  1.96166529974654314794e-02  1.90259781493104518368e-06 0
5.18750000000000044409e-01  6.25000000000000034694e-03  1.95973133264530294251e-02  2.32665793513733842879e-06 0
5.25000000000000022204e-01  6.25000000000000034694e-03  1.95704185181012277339e-02  2.74982108455432139316e-06 0
5.31250000000000000000e-01  6.25000000000000034694e-03  1.95359789408710675385e-02  3.17192412528297107421e-06 0
5.37499999999999977796e-01  6.25000000000000034694e-03  1.94940078718748646680e-02  3.59280432885022982248e-06 0
5.43749999999999955591e-01  6.25000000000000034694e-03  1.94445214917585117165e-02  4.01229943810046951747e-06 0
5.50000000000000044409e-01  6.25000000000000034694e-03  1.93875388784635026285e-02  4.43024772972880342969e-06 0
5.56250000000000022204e-01  6.25000000000000034694e-03  1.93230819998725551756e-02  4.84648807614132537402e-06 0
5.62500000000000000000e-01  6.25000000000000034694e-03  1.92511757053387445870e-02  5.26086000937273090550e-06 0
5.68749999999999977796e-01  6.25000000000000034694e-03  1.91718477161080189108e-02  5.67320378055263807582e-06 0
5.74999999999999955591e-01  6.25000000000000034694e-03  1.90851286146290315127e-02  6.08336042457260917082e-06 0
5.81250000000000044409e-01  6.25000000000000034694e-03  1.89910518327680508111e-02  6.49117181636751916507e-06 0
5.87500000000000022204e-01  6.25000000000000034694e-03  1.88896536389138551548e-02  6.89648073834772668000e-06 0
5.93750000000000000000e-01  6.25000000000000034694e-03  1.87809731240010761855e-02  7.29913093550776936880e-06 0
5.99999999999999977796e-01  6.25000000000000034694e-03  1.86650521864365065428e-02  7.69896717906642935603e-06 0
6.06249999999999955591e-01  6.25000000000000034694e-03  1.85419355159486994034e-02  8.09583532407689987487e-06 0
6.12500000000000044409e-01  6.25000000000000034694e-03  1.84116705763577963306e-02  8.48958237027047646350e-06 0
6.18750000000000022204e-01  6.25000000000000034694e-03  1.82743075872775356805e-02  8.88005652086021335379e-06 0
6.25000000000000000000e-01  6.25000000000000034694e-03  1.81298995047545902226e-02  9.26710724106008520984e-06 0
6.31249999999999977796e-01  6.25000000000000034694e-03  1.79785020008542927028e-02  9.65058531486595594373e-06 0
6.37499999999999955591e-01  6.25000000000000034694e-03  1.78201734421969508471e-02  1.00303429036059654766e-05 0