Titile = 'Poisson'  
VARIABLES = X, Y, U, Error, Rank 
zone N= 6601, E = 12800
DATAPACKING=POINT, ZONETYPE=FETRIANGLE
0.00000000000000000000e+00  7.50000000000000000000e-01  0.00000000000000000000e+00  0.00000000000000000000e+00 3
6.25000000000000034694e-03  7.50000000000000000000e-01  1.38818570930354344417e-02  1.25998560603080012044e-06 3
1.25000000000000006939e-02  7.50000000000000000000e-01  2.77583851507619029653e-02  2.49680060999610264894e-06 3
1.87499999999999993061e-02  7.50000000000000000000e-01  4.16242338470385747629e-02  3.71062861895254947342e-06 3
2.50000000000000013878e-02  7.50000000000000000000e-01  5.54740569825722326658e-02  4.90165235141060140478e-06 3
3.12500000000000000000e-02  7.50000000000000000000e-01  6.93025145463451452965e-02  6.07005320059361697105e-06 3
3.74999999999999986122e-02  7.50000000000000000000e-01  8.31042747746489340877e-02  7.21601080654055149211e-06 3
4.37499999999999972244e-02  7.50000000000000000000e-01  9.68740162069199745032e-02  8.33970264788042037196e-06 3
5.00000000000000027756e-02  7.50000000000000000000e-01  1.10606429737588871087e-01  9.44130364828599244476e-06 3
5.62500000000000013878e-02  7.50000000000000000000e-01  1.24296220663140041807e-01  1.05209858106414255730e-05 3
6.25000000000000000000e-02  7.50000000000000000000e-01  1.37938110723597961993e-01  1.15789178735392628283e-05 3
6.87500000000000055511e-02  7.50000000000000000000e-01  1.51526840137643226125e-01  1.26152649999600185993e-05 3
7.49999999999999972244e-02  7.50000000000000000000e-01  1.65057169630575872876e-01  1.36301884957890084848e-05 3
8.12500000000000027756e-02  7.50000000000000000000e-01  1.78523882454342114334e-01  1.46238455615010920496e-05 3
8.74999999999999944489e-02  7.50000000000000000000e-01  1.91921786398839527843e-01  1.55963890815791206279e-05 3
9.37500000000000000000e-02  7.50000000000000000000e-01  2.05245715793741179134e-01  1.65479674374968688255e-05 3
1.00000000000000005551e-01  7.50000000000000000000e-01  2.18490533500035305492e-01  1.74787243752139165309e-05 3
1.06249999999999997224e-01  7.50000000000000000000e-01  2.31651132890552891030e-01  1.83887988867981189145e-05 3
1.12500000000000002776e-01  7.50000000000000000000e-01  2.44722439818686132718e-01  1.92783251404815558772e-05 3
1.18749999999999994449e-01  7.50000000000000000000e-01  2.57699414574555918378e-01  2.01474324415529260079e-05 3
1.25000000000000000000e-01  7.50000000000000000000e-01  2.70577053827883051706e-01  2.09962452154544010341e-05 3
1.31250000000000005551e-01  7.50000000000000000000e-01  2.83350392556786512266e-01  2.18248830404776938963e-05 3
1.37500000000000011102e-01  7.50000000000000000000e-01  2.96014505961807727896e-01  2.26334606879263766643e-05 3
1.43749999999999988898e-01  7.50000000000000000000e-01  3.08564511364386784287e-01  2.34220882054381185355e-05 3
1.49999999999999994449e-01  7.50000000000000000000e-01  3.20995570089084303333e-01  2.41908710187366260413e-05 3
1.56250000000000000000e-01  7.50000000000000000000e-01  3.33302889328815410419e-01  2.49399100578640009473e-05 3
1.62500000000000005551e-01  7.50000000000000000000e-01  3.45481723992382250277e-01  2.56693019042852910161e-05 3
1.68750000000000011102e-01  7.50000000000000000000e-01  3.57527378533598449994e-01  2.63791389524814512413e-05 3
1.74999999999999988898e-01  7.50000000000000000000e-01  3.69435208761285882595e-01  2.70695095996864587562e-05 3
1.81249999999999994449e-01  7.50000000000000000000e-01  3.81200623629474821819e-01  2.77404984360130058008e-05 3
1.87500000000000000000e-01  7.50000000000000000000e-01  3.92819087007087786034e-01  2.83921864632774578752e-05 3
1.93750000000000005551e-01  7.50000000000000000000e-01  4.04286119426457923876e-01  2.90246513106606762733e-05 3
2.00000000000000011102e-01  7.50000000000000000000e-01  4.15597299809984943586e-01  2.96379674685209870688e-05 3
2.06249999999999988898e-01  7.50000000000000000000e-01  4.26748267174276441072e-01  3.02322065282023544341e-05 3
2.12499999999999994449e-01  7.50000000000000000000e-01  4.37734722311121038363e-01  3.08074374232858438916e-05 3
2.18750000000000000000e-01  7.50000000000000000000e-01  4.48552429444628864008e-01  3.13637266893262989242e-05 3
2.25000000000000005551e-01  7.50000000000000000000e-01  4.59197217863934858961e-01  3.19011387067136276130e-05 3
2.31250000000000011102e-01  7.50000000000000000000e-01  4.69664983530799162725e-01  3.24197359642952598335e-05 3
2.37499999999999988898e-01  7.50000000000000000000e-01  4.79951690661512386793e-01  3.29195793147829540715e-05 3
2.43749999999999994449e-01  7.50000000000000000000e-01  4.90053373282487214624e-01  3.34007282311032938082e-05 3
2.50000000000000000000e-01  7.50000000000000000000e-01  4.99966136758932144790e-01  3.38632410678552098204e-05 3
2.56249999999999977796e-01  7.50000000000000000000e-01  5.09686159296035667943e-01  3.43071753108326049642e-05 3
2.62500000000000011102e-01  7.50000000000000000000e-01  5.19209693412060802054e-01  3.47325878350401850980e-05 3
2.68749999999999988898e-01  7.50000000000000000000e-01  5.28533067382795263001e-01  3.51395351572136860341e-05 3
2.75000000000000022204e-01  7.50000000000000000000e-01  5.37652686656809652987e-01  3.55280736769048033352e-05 3
2.81250000000000000000e-01  7.50000000000000000000e-01  5.46565035240953234208e-01  3.58982599255597278898e-05 3
2.87499999999999977796e-01  7.50000000000000000000e-01  5.55266677055575863520e-01  3.62501508061052746257e-05 3
2.93750000000000011102e-01  7.50000000000000000000e-01  5.63754257258950342013e-01  3.65838038223209593980e-05 3
2.99999999999999988898e-01  7.50000000000000000000e-01  5.72024503540364603893e-01  3.68992773197573953325e-05 3
3.06250000000000022204e-01  7.50000000000000000000e-01  5.80074227381426887895e-01  3.71966306963456005974e-05 3
3.12500000000000000000e-01  7.50000000000000000000e-01  5.87900325285042102408e-01  3.74759246373201904134e-05 3
3.18749999999999977796e-01  7.50000000000000000000e-01  5.95499779971644382925e-01  3.77372213171689452338e-05 3
3.25000000000000011102e-01  7.50000000000000000000e-01  6.02869661542173584934e-01  3.79805846174585681752e-05 3
3.31249999999999988898e-01  7.50000000000000000000e-01  6.10007128607385595842e-01  3.82060803232331380741e-05 3
3.37500000000000022204e-01  7.50000000000000000000e-01  6.16909429383035057270e-01  3.84137763257408337836e-05 3
3.43750000000000000000e-01  7.50000000000000000000e-01  6.23573902750524600158e-01  3.86037428109498037543e-05 3
3.49999999999999977796e-01  7.50000000000000000000e-01  6.29997979282599929185e-01  3.87760524505065262701e-05 3
3.56250000000000011102e-01  7.50000000000000000000e-01  6.36179182233711504324e-01  3.89307805743754897776e-05 3
3.62499999999999988898e-01  7.50000000000000000000e-01  6.42115128494634479495e-01  3.90680053541370142511e-05 3
3.68750000000000022204e-01  7.50000000000000000000e-01  6.47803529511015274700e-01  3.91878079614160768074e-05 3
3.75000000000000000000e-01  7.50000000000000000000e-01  6.53242192165439217177e-01  3.92902727490707093239e-05 3
3.81249999999999977796e-01  7.50000000000000000000e-01  6.58429019622750466567e-01  3.93754873879714750728e-05 3
3.87500000000000011102e-01  7.50000000000000000000e-01  6.63362012138213996693e-01  3.94435430407513720752e-05 3
3.93749999999999988898e-01  7.50000000000000000000e-01  6.68039267828290705964e-01  3.94945344910357931667e-05 3
4.00000000000000022204e-01  7.50000000000000000000e-01  6.72458983403661281208e-01  3.95285602960981918841e-05 3
4.06250000000000000000e-01  7.50000000000000000000e-01  6.76619454864250235993e-01  3.95457229261930720554e-05 3
4.12499999999999977796e-01  7.50000000000000000000e-01  6.80519078155973011768e-01  3.95461289031118212733e-05 3
4.18750000000000011102e-01  7.50000000000000000000e-01  6.84156349788993312089e-01  3.95298888948847348956e-05 3
4.24999999999999988898e-01  7.50000000000000000000e-01  6.87529867417135287511e-01  3.94971178853120719054e-05 3
4.31250000000000022204e-01  7.50000000000000000000e-01  6.90638330378383069608e-01  3.94479352604504285296e-05 3
4.37500000000000000000e-01  7.50000000000000000000e-01  6.93480540196129813246e-01  3.93824649439489249403e-05 3
4.43749999999999977796e-01  7.50000000000000000000e-01  6.96055401041074328639e-01  3.93008354886426047869e-05 3
4.50000000000000011102e-01  7.50000000000000000000e-01  6.98361920153513171527e-01  3.92031801972336779727e-05 3
4.56249999999999988898e-01  7.50000000000000000000e-01  7.00399208225920610893e-01  3.90896372187699014944e-05 3
4.62500000000000022204e-01  7.50000000000000000000e-01  7.02166479745638283383e-01  3.89603496512291869180e-05 3
4.68750000000000000000e-01  7.50000000000000000000e-01  7.03663053297564067279e-01  3.88154656271177955773e-05 3
4.74999999999999977796e-01  7.50000000000000000000e-01  7.04888351826682413304e-01  3.86551384249367302459e-05 3
4.81250000000000011102e-01  7.50000000000000000000e-01  7.05841902860393943797e-01  3.84795265453430346270e-05 3
4.87499999999999988898e-01  7.50000000000000000000e-01  7.06523338690521196526e-01  3.82887937924181187554e-05 3
4.93750000000000022204e-01  7.50000000000000000000e-01  7.06932396514910132979e-01  3.80831093672595599742e-05 3
5.00000000000000000000e-01  7.50000000000000000000e-01  7.07068918538606205892e-01  3.78626479413668448615e-05 3
5.06249999999999977796e-01  7.50000000000000000000e-01  7.06932852034530934127e-01  3.76275897464584119234e-05 3
5.12499999999999955591e-01  7.50000000000000000000e-01  7.06524249363680301173e-01  3.73781206333134718989e-05 3
5.18750000000000044409e-01  7.50000000000000000000e-01  7.05843267954780473339e-01  3.71144321588134928902e-05 3
5.25000000000000022204e-01  7.50000000000000000000e-01  7.04890170243460012500e-01  3.68367216473375336250e-05 3
5.31250000000000000000e-01  7.50000000000000000000e-01  7.03665323570930589803e-01  3.65451922607062940074e-05 3
5.37499999999999977796e-01  7.50000000000000000000e-01  7.02169200042200181144e-01  3.62400530893314254399e-05 3
5.43749999999999955591e-01  7.50000000000000000000e-01  7.00402376343959409688e-01  3.59215191799711064391e-05 3
5.50000000000000044409e-01  7.50000000000000000000e-01  6.98365533522073200778e-01  3.55898116370934047836e-05 3
5.56250000000000022204e-01  7.50000000000000000000e-01  6.96059456718905678052e-01  3.52451576572931912779e-05 3
5.62500000000000000000e-01  7.50000000000000000000e-01  6.93485034870463423751e-01  3.48877906103384205494e-05 3
5.68749999999999977796e-01  7.50000000000000000000e-01  6.90643260363531630297e-01  3.45179501118897391621e-05 3
5.74999999999999955591e-01  7.50000000000000000000e-01  6.87535228652969676588e-01  3.41358820509229943241e-05 3
5.81250000000000044409e-01  7.50000000000000000000e-01  6.84162137839211204060e-01  3.37418386769927636237e-05 3
5.87500000000000022204e-01  7.50000000000000000000e-01  6.80525288206221490306e-01  3.33360786546332832359e-05 3
5.93750000000000000000e-01  7.50000000000000000000e-01  6.76626081720040351009e-01  3.29188671360780560349e-05 3
5.99999999999999977796e-01  7.50000000000000000000e-01  6.72466021488154930275e-01  3.24904758024491258084e-05 3
6.06249999999999955591e-01  7.50000000000000000000e-01  6.68046711179846597339e-01  3.20511829352554400430e-05 3
6.12500000000000044409e-01  7.50000000000000000000e-01  6.63369854407787618022e-01  3.16012734670190198472e-05 3
6.18750000000000022204e-01  7.50000000000000000000e-01  6.58437254071059574478e-01  3.11410390788635638160e-05 3
6.25000000000000000000e-01  7.50000000000000000000e-01  6.53250811659975227919e-01  3.06707782130599682091e-05 3
6.31249999999999977796e-01  7.50000000000000000000e-01  6.47812526522800302686e-01  3.01907961763880905437e-05 3
6.37499999999999955591e-01  7.50000000000000000000e-01  6.42124495094797853589e-01  2.97014051908739418195e-05 3
6.43750000000000044409e-01  7.50000000000000000000e-01  6.36188910089826697991e-01  2.92029244590708003670e-05 3
6.50000000000000022204e-01  7.50000000000000000000e-01  6.30008059654818985962e-01  2.86956802315607717446e-05 3
6.56250000000000000000e-01  7.50000000000000000000e-01  6.23584326487458207033e-01  2.81800058774539508022e-05 3
6.62499999999999977796e-01  7.50000000000000000000e-01  6.16920186917396140558e-01  2.76562419647685686641e-05 3
6.68749999999999955591e-01  7.50000000000000000000e-01  6.10018209951381451539e-01  2.71247363275994857190e-05 3
6.75000000000000044409e-01  7.50000000000000000000e-01  6.02881056282669636204e-01  2.65858441214072982461e-05 3
6.81250000000000022204e-01  7.50000000000000000000e-01  5.95511477265055044761e-01  2.60399279066181321696e-05 3
6.87500000000000000000e-01  7.50000000000000000000e-01  5.87912313851910783846e-01  2.54873577687497743227e-05 3
6.93749999999999977796e-01  7.50000000000000000000e-01  5.80086495500768517530e-01  2.49285113547159653535e-05 3
6.99999999999999955591e-01  7.50000000000000000000e-01  5.72037039043734707455e-01  2.43637739496538330286e-05 3
7.06250000000000044409e-01  7.50000000000000000000e-01  5.63767047524163178451e-01  2.37935386094845213734e-05 3
7.12500000000000022204e-01  7.50000000000000000000e-01  5.55279709000232379879e-01  2.32182061495889158209e-05 3
7.18750000000000000000e-01  7.50000000000000000000e-01  5.46578295315501838658e-01  2.26381853770662999636e-05 3
7.24999999999999977796e-01  7.50000000000000000000e-01  5.37666160837432127728e-01  2.20538930544300626480e-05 3
7.31249999999999955591e-01  7.50000000000000000000e-01  5.28546741163882449754e-01  2.14657540702489768591e-05 3
7.37500000000000044409e-01  7.50000000000000000000e-01  5.19223551798425164705e-01  2.08742014705665113183e-05 3
7.43750000000000022204e-01  7.50000000000000000000e-01  5.09700186794753262731e-01  2.02796765934598610670e-05 3
7.50000000000000000000e-01  7.50000000000000000000e-01  4.99980317370845361857e-01  1.96826291547491649681e-05 3
7.56249999999999977796e-01  7.50000000000000000000e-01  4.90067690493351526548e-01  1.90835173667913693407e-05 3
7.62499999999999955591e-01  7.50000000000000000000e-01  4.79966127432848610468e-01  1.84828079787813237544e-05 3
7.68750000000000044409e-01  7.50000000000000000000e-01  4.69679522290319728661e-01  1.78809764436183016301e-05 3
7.75000000000000022204e-01  7.50000000000000000000e-01  4.59211840495729217704e-01  1.72785069124103962679e-05 3
7.81250000000000000000e-01  7.50000000000000000000e-01  4.48567117278858118468e-01  1.66758924600718394515e-05 3
7.87499999999999977796e-01  7.50000000000000000000e-01  4.37749456113482537933e-01  1.60736350619528067796e-05 3
7.93749999999999955591e-01  7.50000000000000000000e-01  4.26763027135047157135e-01  1.54722457575418026465e-05 3
8.00000000000000044409e-01  7.50000000000000000000e-01  4.15612065532773078402e-01  1.48722446804416819077e-05 3
8.06250000000000022204e-01  7.50000000000000000000e-01  4.04300869916607685806e-01  1.42741611608987462034e-05 3
8.12500000000000000000e-01  7.50000000000000000000e-01  3.92833800659744103445e-01  1.36785338069600470590e-05 3
8.18749999999999977796e-01  7.50000000000000000000e-01  3.81215278217332198540e-01  1.30859105788028173833e-05 3
8.24999999999999955591e-01  7.50000000000000000000e-01  3.69449781422072409676e-01  1.24968488132148891623e-05 3
8.31250000000000044409e-01  7.50000000000000000000e-01  3.57541845757278264895e-01  1.19119152726665511466e-05 3
8.37500000000000022204e-01  7.50000000000000000000e-01  3.45496061608104421126e-01  1.13316861820589309673e-05 3
8.43750000000000000000e-01  7.50000000000000000000e-01  3.33317072491560562053e-01  1.07567473128789004022e-05 3
8.49999999999999977796e-01  7.50000000000000000000e-01  3.21009573266200332053e-01  1.01876939028189283931e-05 3
8.56249999999999955591e-01  7.50000000000000000000e-01  3.08578308321920291579e-01  9.62513067226389296138e-06 3
8.62500000000000044409e-01  7.50000000000000000000e-01  2.96028069750682576444e-01  9.06967181291129520559e-06 3
8.68750000000000022204e-01  7.50000000000000000000e-01  2.83363695498910606041e-01  8.52194091655045227185e-06 3
8.75000000000000000000e-01  7.50000000000000000000e-01  2.70590067502171294223e-01  7.98257092732290729487e-06 3
8.81249999999999977796e-01  7.50000000000000000000e-01  2.57712109803002353825e-01  7.45220399511747899624e-06 3
8.87499999999999955591e-01  7.50000000000000000000e-01  2.44734786652412578123e-01  6.93149141425819514950e-06 3
8.93750000000000044409e-01  7.50000000000000000000e-01  2.31663100596034399192e-01  6.42109340517893478761e-06 3
9.00000000000000022204e-01  7.50000000000000000000e-01  2.18502090545448779402e-01  5.92167896182327346821e-06 3
9.06250000000000000000e-01  7.50000000000000000000e-01  2.05256829835544968299e-01  5.43392563376321469093e-06 3
9.12499999999999977796e-01  7.50000000000000000000e-01  1.91932424268623780250e-01  4.95851929754875797585e-06 3
9.18749999999999955591e-01  7.50000000000000000000e-01  1.78534010146095878380e-01  4.49615380790358010188e-06 3
9.25000000000000044409e-01  7.50000000000000000000e-01  1.65066752288310525376e-01  4.04753076124753086162e-06 3
9.31250000000000022204e-01  7.50000000000000000000e-01  1.51535842043618723674e-01  3.61335902443471468359e-06 3
9.37500000000000000000e-01  7.50000000000000000000e-01  1.37946495286985604256e-01  3.19435448614679984303e-06 3
9.43749999999999977796e-01  7.50000000000000000000e-01  1.24303950409451552384e-01  2.79123949928350434391e-06 3
9.49999999999999955591e-01  7.50000000000000000000e-01  1.10613466298734350324e-01  2.40474250289002267067e-06 3
9.56250000000000044409e-01  7.50000000000000000000e-01  9.68803203120972983298e-02  2.03559747057047157881e-06 3
9.62500000000000022204e-01  7.50000000000000000000e-01  8.31098062420587979648e-02  1.68454339660728535932e-06 3
9.68750000000000000000e-01  7.50000000000000000000e-01  6.93072322757979641938e-02  1.35232374792737530811e-06 3
9.74999999999999977796e-01  7.50000000000000000000e-01  5.54779189490418184194e-02  1.03968588191505340035e-06 3
9.81249999999999955591e-01  7.50000000000000000000e-01  4.16271970952512837538e-02  7.47380406569686517315e-07 3
9.87500000000000044409e-01  7.50000000000000000000e-01  2.77604057908089167650e-02  4.76160562909444529112e-07 3
9.93750000000000022204e-01  7.50000000000000000000e-01  1.38828902970786118715e-02  2.26781563016434373203e-07 3
1.00000000000000000000e+00  7.50000000000000000000e-01  0.00000000000000000000e+00  8.65956056235493409077e-17 3
0.00000000000000000000e+00  7.56249999999999977796e-01  0.00000000000000000000e+00  0.00000000000000000000e+00 3
6.25000000000000034694e-03  7.56249999999999977796e-01  1.36066120138797642253e-02  1.25211068923922197449e-06 3
1.25000000000000006939e-02  7.56249999999999977796e-01  2.72080015393305098270e-02  2.48061914994227028508e-06 3
1.87499999999999993061e-02  7.56249999999999977796e-01  4.07989243021993283622e-02  3.68573134526539725186e-06 3
2.50000000000000013878e-02  7.56249999999999977796e-01  5.43741400734844212983e-02  4.86765224319563039046e-06 3
3.12500000000000000000e-02  7.56249999999999977796e-01  6.79284146899542945475e-02  6.02658532633526533573e-06 3
3.74999999999999986122e-02  7.56249999999999977796e-01  8.14565220724137728503e-02  7.16273211703866152789e-06 3
4.37499999999999972244e-02  7.56249999999999977796e-01  9.49532462408389094088e-02  8.27629171779031835854e-06 3
5.00000000000000027756e-02  7.56249999999999977796e-01  1.08413383325595052975e-01  9.36746037603908288105e-06 3
5.62500000000000013878e-02  7.56249999999999977796e-01  1.21831743573960843419e-01  1.04364310752058653264e-05 3
6.25000000000000000000e-02  7.56249999999999977796e-01  1.35203153351181548647e-01  1.14833931555702317695e-05 3
6.87500000000000055511e-02  7.56249999999999977796e-01  1.48522457135278035389e-01  1.25085319669648864505e-05 3
7.49999999999999972244e-02  7.56249999999999977796e-01  1.61784519504836993287e-01  1.35120285587875255118e-05 3
8.12500000000000027756e-02  7.56249999999999977796e-01  1.74984227119015012253e-01  1.44940594090925412019e-05 3
8.74999999999999944489e-02  7.56249999999999977796e-01  1.88116490688998633241e-01  1.54547961865869609710e-05 3
9.37500000000000000000e-02  7.56249999999999977796e-01  2.01176246940149627829e-01  1.63944055568132629475e-05 3
1.00000000000000005551e-01  7.56249999999999977796e-01  2.14158460564087077538e-01  1.73130490248030177725e-05 3
1.06249999999999997224e-01  7.56249999999999977796e-01  2.27058126159947665235e-01  1.82108828195581828879e-05 3
1.12500000000000002776e-01  7.56249999999999977796e-01  2.39870270164085935827e-01  1.90880578109786647190e-05 3
1.18749999999999994449e-01  7.56249999999999977796e-01  2.52589952767458492122e-01  1.99447194708102237826e-05 3
1.25000000000000000000e-01  7.56249999999999977796e-01  2.65212269819971646623e-01  2.07810078596271097240e-05 3
1.31250000000000005551e-01  7.56249999999999977796e-01  2.77732354721038909862e-01  2.15970576582513729136e-05 3
1.37500000000000011102e-01  7.56249999999999977796e-01  2.90145380295643129376e-01  2.23929982210990807800e-05 3
1.43749999999999988898e-01  7.56249999999999977796e-01  3.02446560655166729603e-01  2.31689536634993586972e-05 3
1.49999999999999994449e-01  7.56249999999999977796e-01  3.14631153042284172905e-01  2.39250429734383374125e-05 3
1.56250000000000000000e-01  7.56249999999999977796e-01  3.26694459659200353574e-01  2.46613801495598750080e-05 3
1.62500000000000005551e-01  7.56249999999999977796e-01  3.38631829478533763478e-01  2.53780743649234530324e-05 3
1.68750000000000011102e-01  7.56249999999999977796e-01  3.50438660036161697686e-01  2.60752301394218122255e-05 3
1.74999999999999988898e-01  7.56249999999999977796e-01  3.62110399205311683790e-01  2.67529475455052789812e-05 3
1.81249999999999994449e-01  7.56249999999999977796e-01  3.73642546951249543419e-01  2.74113224129068910884e-05 3
1.87500000000000000000e-01  7.56249999999999977796e-01  3.85030657065859149846e-01  2.80504465612341213898e-05 3
1.93750000000000005551e-01  7.56249999999999977796e-01  3.96270338881470340908e-01  2.86704080343369582806e-05 3
2.00000000000000011102e-01  7.56249999999999977796e-01  4.07357258963259194484e-01  2.92712913521619988444e-05 3
2.06249999999999988898e-01  7.56249999999999977796e-01  4.18287142779592668873e-01  2.98531777550570254220e-05 3
2.12499999999999994449e-01  7.56249999999999977796e-01  4.29055776349637429945e-01  3.04161454769968919720e-05 3
2.18750000000000000000e-01  7.56249999999999977796e-01  4.39659007867645890144e-01  3.09602699992694851971e-05 3
2.25000000000000005551e-01  7.56249999999999977796e-01  4.50092749303248385040e-01  3.14856243292527260280e-05 3
2.31250000000000011102e-01  7.56249999999999977796e-01  4.60352977977175559232e-01  3.19922792634264041567e-05 3
2.37499999999999988898e-01  7.56249999999999977796e-01  4.70435738111773249503e-01  3.24803036645948672856e-05 3
2.43749999999999994449e-01  7.56249999999999977796e-01  4.80337142355744262101e-01  3.29497647214016531336e-05 3
2.50000000000000000000e-01  7.56249999999999977796e-01  4.90053373282486604001e-01  3.34007282316028941693e-05 3
2.56249999999999977796e-01  7.56249999999999977796e-01  4.99580684861501478355e-01  3.38332588599166150800e-05 3
2.62500000000000011102e-01  7.56249999999999977796e-01  5.08915403902265639502e-01  3.42474204064746601262e-05 3
2.68749999999999988898e-01  7.56249999999999977796e-01  5.18053931470029205286e-01  3.46432760690573715578e-05 3
2.75000000000000022204e-01  7.56249999999999977796e-01  5.26992744273001134658e-01  3.50208886918945694333e-05 3
2.81250000000000000000e-01  7.56249999999999977796e-01  5.35728396020352715112e-01  3.53803210328962336462e-05 3
2.87499999999999977796e-01  7.56249999999999977796e-01  5.44257518750564939225e-01  3.57216360039602776055e-05 3
2.93750000000000011102e-01  7.56249999999999977796e-01  5.52576824129580757017e-01  3.60448969068949409689e-05 3
2.99999999999999988898e-01  7.56249999999999977796e-01  5.60683104718243341402e-01  3.63501676865496392566e-05 3
3.06250000000000022204e-01  7.56249999999999977796e-01  5.68573235208577276723e-01  3.66375131534146802892e-05 3
3.12500000000000000000e-01  7.56249999999999977796e-01  5.76244173628407518883e-01  3.69069992058879137176e-05 3
3.18749999999999977796e-01  7.56249999999999977796e-01  5.83692962513838509153e-01  3.71586930638656554038e-05 3
3.25000000000000011102e-01  7.56249999999999977796e-01  5.90916730049182103990e-01  3.73926634731347462548e-05 3
3.31249999999999988898e-01  7.56249999999999977796e-01  5.97912691173862143046e-01  3.76089809140944808519e-05 3
3.37500000000000022204e-01  7.56249999999999977796e-01  6.04678148655875880024e-01  3.78077178074809339137e-05 3
3.43750000000000000000e-01  7.56249999999999977796e-01  6.11210494131400827733e-01  3.79889487129858594017e-05 3
3.49999999999999977796e-01  7.56249999999999977796e-01  6.17507209110155996790e-01  3.81527505141088241203e-05 3
3.56250000000000011102e-01  7.56249999999999977796e-01  6.23565865946117958707e-01  3.82992025977912931012e-05 3
3.62499999999999988898e-01  7.56249999999999977796e-01  6.29384128773196827034e-01  3.84283870517032610792e-05 3
3.68750000000000022204e-01  7.56249999999999977796e-01  6.34959754405577725400e-01  3.85403888121249593723e-05 3
3.75000000000000000000e-01  7.56249999999999977796e-01  6.40290593202290869712e-01  3.86352958519076139510e-05 3
3.81249999999999977796e-01  7.56249999999999977796e-01  6.45374589895758243863e-01  3.87131993272449292931e-05 3
3.87500000000000011102e-01  7.56249999999999977796e-01  6.50209784383945610386e-01  3.87741937356578247886e-05 3
3.93749999999999988898e-01  7.56249999999999977796e-01  6.54794312485820095837e-01  3.88183770777539294272e-05 3
4.00000000000000022204e-01  7.56249999999999977796e-01  6.59126406659869212845e-01  3.88458509792410922046e-05 3
4.06250000000000000000e-01  7.56249999999999977796e-01  6.63204396685313501969e-01  3.88567208584600365384e-05 3
4.12499999999999977796e-01  7.56249999999999977796e-01  6.67026710305861358918e-01  3.88510960332988375399e-05 3
4.18750000000000011102e-01  7.56249999999999977796e-01  6.70591873835655882807e-01  3.88290898676313389615e-05 3
4.24999999999999988898e-01  7.56249999999999977796e-01  6.73898512727239662468e-01  3.87908198958841765602e-05 3
4.31250000000000022204e-01  7.56249999999999977796e-01  6.76945352101309905102e-01  3.87364079371677050290e-05 3
4.37500000000000000000e-01  7.56249999999999977796e-01  6.79731217238039420181e-01  3.86659802175115530076e-05 3
4.43749999999999977796e-01  7.56249999999999977796e-01  6.82255034029802254203e-01  3.85796674725602528611e-05 3
4.50000000000000011102e-01  7.56249999999999977796e-01  6.84515829395096919718e-01  3.84776050628143906351e-05 3
4.56249999999999988898e-01  7.56249999999999977796e-01  6.86512731653527663589e-01  3.83599330813222394454e-05 3
4.62500000000000022204e-01  7.56249999999999977796e-01  6.88244970861716542920e-01  3.82267964376126201387e-05 3
4.68750000000000000000e-01  7.56249999999999977796e-01  6.89711879109952574751e-01  3.80783449798194340019e-05 3
4.74999999999999977796e-01  7.56249999999999977796e-01  6.90912890779558863663e-01  3.79147335622942449618e-05 3
4.81250000000000011102e-01  7.56249999999999977796e-01  6.91847542760791300864e-01  3.77361221433059057517e-05 3
4.87499999999999988898e-01  7.56249999999999977796e-01  6.92515474631210103951e-01  3.75426758900676560415e-05 3
4.93750000000000022204e-01  7.56249999999999977796e-01  6.92916428794512984091e-01  3.73345652315837384094e-05 3
5.00000000000000000000e-01  7.56249999999999977796e-01  6.93050250579666515804e-01  3.71119659693386338972e-05 3
5.06249999999999977796e-01  7.56249999999999977796e-01  6.92916888300405320322e-01  3.68750593392475067844e-05 3
5.12499999999999955591e-01  7.56249999999999977796e-01  6.92516393275008690367e-01  3.66240320914812400588e-05 3
5.18750000000000044409e-01  7.56249999999999977796e-01  6.91848919806368090057e-01  3.63590765665167126031e-05 3
5.25000000000000022204e-01  7.56249999999999977796e-01  6.90914725122350970032e-01  3.60803907701878756598e-05 3
5.31250000000000000000e-01  7.56249999999999977796e-01  6.89714169276490318694e-01  3.57881784421865134505e-05 3
5.37499999999999977796e-01  7.56249999999999977796e-01  6.88247715009030258670e-01  3.54826491238968699804e-05 3
5.43749999999999955591e-01  7.56249999999999977796e-01  6.86515927568379091817e-01  3.51640182298940118244e-05 3
5.50000000000000044409e-01  7.56249999999999977796e-01  6.84519474493049062680e-01  3.48325071105604067156e-05 3
5.56250000000000022204e-01  7.56249999999999977796e-01  6.82259125354155782084e-01  3.44883431190323719306e-05 3
5.62500000000000000000e-01  7.56249999999999977796e-01  6.79735751458570236494e-01  3.41317596866952399637e-05 3
5.68749999999999977796e-01  7.56249999999999977796e-01  6.76950325512879036438e-01  3.37629963680363687217e-05 3
5.74999999999999955591e-01  7.56249999999999977796e-01  6.73903921248234949459e-01  3.33822989007082071566e-05 3
5.81250000000000044409e-01  7.56249999999999977796e-01  6.70597713006212403641e-01  3.29899193111105049070e-05 3
5.87500000000000022204e-01  7.56249999999999977796e-01  6.67032975285960394451e-01  3.25861159342633044389e-05 3
5.93750000000000000000e-01  7.56249999999999977796e-01  6.63211082252678330029e-01  3.21711534936319765166e-05 3
5.99999999999999977796e-01  7.56249999999999977796e-01  6.59133507207691926588e-01  3.17453031566383714335e-05 3
6.06249999999999955591e-01  7.56249999999999977796e-01  6.54801822020287582760e-01  3.13088426103780292920e-05 3
6.12500000000000044409e-01  7.56249999999999977796e-01  6.50217696521555366118e-01  3.08620561257910708264e-05 3
6.18750000000000022204e-01  7.56249999999999977796e-01  6.45382897860472093399e-01  3.04052346133953932394e-05 3
6.25000000000000000000e-01  7.56249999999999977796e-01  6.40299289822450212739e-01  2.99386756925645869387e-05 3
6.31249999999999977796e-01  7.56249999999999977796e-01  6.34968832110627490195e-01  2.94626837623601645078e-05 3
6.37499999999999955591e-01  7.56249999999999977796e-01  6.29393579590171725613e-01  2.89775700769157040781e-05 3