Titile = 'Poisson'  
VARIABLES = X, Y, U, Error, Rank 
zone N= 1771, E = 3200
DATAPACKING=POINT, ZONETYPE=FETRIANGLE
0.00000000000000000000e+00  4.37500000000000000000e-01  0.00000000000000000000e+00  0.00000000000000000000e+00 7
6.25000000000000034694e-03  4.37500000000000000000e-01  1.92555607835020251017e-02  8.75781846092216209598e-07 7
1.25000000000000006939e-02  4.37500000000000000000e-01  3.85036919007219757827e-02  1.75750711529920611298e-06 7
1.87499999999999993061e-02  4.37500000000000000000e-01  5.77369729907051820739e-02  2.64467588977773671033e-06 7
2.50000000000000013878e-02  4.37500000000000000000e-01  7.69479894149763116173e-02  3.53678864198347930881e-06 7
3.12500000000000000000e-02  4.37500000000000000000e-01  9.61293351160234232911e-02  4.43334642745429885480e-06 7
3.74999999999999986122e-02  4.37500000000000000000e-01  1.15273615472469712073e-01  5.33385108152095721579e-06 7
4.37499999999999972244e-02  4.37500000000000000000e-01  1.34373450149837259104e-01  6.23780541494922680101e-06 7
5.00000000000000027756e-02  4.37500000000000000000e-01  1.53421475945803909013e-01  7.14471340826361434040e-06 7
5.62500000000000013878e-02  4.37500000000000000000e-01  1.72410349628856179871e-01  8.05408040449595574728e-06 7
6.25000000000000000000e-02  4.37500000000000000000e-01  1.91332750769242498912e-01  8.96541330236422240318e-06 7
6.87500000000000055511e-02  4.37500000000000000000e-01  2.10181384561134138034e-01  9.87822075051991710382e-06 7
7.49999999999999972244e-02  4.37500000000000000000e-01  2.28948984634914365355e-01  1.07920133339545198936e-05 7
8.12500000000000027756e-02  4.37500000000000000000e-01  2.47628315858499342683e-01  1.17063037662068492040e-05 7
8.74999999999999944489e-02  4.37500000000000000000e-01  2.66212177126625038071e-01  1.26206070708567708039e-05 7
9.37500000000000000000e-02  4.37500000000000000000e-01  2.84693404137006222943e-01  1.35344407728443805183e-05 7
1.00000000000000005551e-01  4.37500000000000000000e-01  3.03064872152323472321e-01  1.44473250727750190947e-05 7
1.06249999999999997224e-01  4.37500000000000000000e-01  3.21319498746942155964e-01  1.53587830341028741543e-05 7
1.12500000000000002776e-01  4.37500000000000000000e-01  3.39450246537337185782e-01  1.62683407526342804772e-05 7
1.18749999999999994449e-01  4.37500000000000000000e-01  3.57450125895142578614e-01  1.71755275347740266056e-05 7
1.25000000000000000000e-01  4.37500000000000000000e-01  3.75312197641795741720e-01  1.80798760694989013587e-05 7
1.31250000000000005551e-01  4.37500000000000000000e-01  3.93029575723737256698e-01  1.89809225942250137109e-05 7
1.37500000000000011102e-01  4.37500000000000000000e-01  4.10595429867127659218e-01  1.98782070616743133940e-05 7
1.43749999999999988898e-01  4.37500000000000000000e-01  4.28002988211067303403e-01  2.07712732973042157880e-05 7
1.49999999999999994449e-01  4.37500000000000000000e-01  4.45245539918293242732e-01  2.16596691608450520050e-05 7
1.56250000000000000000e-01  4.37500000000000000000e-01  4.62316437762348875218e-01  2.25429467050619614099e-05 7
1.62500000000000005551e-01  4.37500000000000000000e-01  4.79209100690245803911e-01  2.34206623196953067634e-05 7
1.68750000000000011102e-01  4.37500000000000000000e-01  4.95917016359605999920e-01  2.42923768815628271511e-05 7
1.74999999999999988898e-01  4.37500000000000000000e-01  5.12433743649311823631e-01  2.51576559054944581817e-05 7
1.81249999999999994449e-01  4.37500000000000000000e-01  5.28752915142717383468e-01  2.60160696753386488922e-05 7
1.87500000000000000000e-01  4.37500000000000000000e-01  5.44868239582427249523e-01  2.68671933912889571161e-05 7
1.93750000000000005551e-01  4.37500000000000000000e-01  5.60773504295733471459e-01  2.77106072963384519880e-05 7
2.00000000000000011102e-01  4.37500000000000000000e-01  5.76462577589751057339e-01  2.85458968057872297663e-05 7
2.06249999999999988898e-01  4.37500000000000000000e-01  5.91929411115321046921e-01  2.93726526483517602628e-05 7
2.12499999999999994449e-01  4.37500000000000000000e-01  6.07168042198819368771e-01  3.01904709694156281330e-05 7
2.18750000000000000000e-01  4.37500000000000000000e-01  6.22172596140900480144e-01  3.09989534668098087877e-05 7
2.25000000000000005551e-01  4.37500000000000000000e-01  6.36937288481350116776e-01  3.17977074998365694114e-05 7
2.31250000000000011102e-01  4.37500000000000000000e-01  6.51456427229143097968e-01  3.25863462027342620786e-05 7
2.37499999999999988898e-01  4.37500000000000000000e-01  6.65724415056849094796e-01  3.33644885989192729880e-05 7
2.43749999999999994449e-01  4.37500000000000000000e-01  6.79735751458551584747e-01  3.41317597053469867774e-05 7
2.50000000000000000000e-01  4.37500000000000000000e-01  6.93485034870442551558e-01  3.48877906310995911099e-05 7
2.56249999999999977796e-01  4.37500000000000000000e-01  7.06966964753262483434e-01  3.56322186868540669025e-05 7
2.62500000000000011102e-01  4.37500000000000000000e-01  7.20176343635811400112e-01  3.63646874712575396416e-05 7
2.68749999999999988898e-01  4.37500000000000000000e-01  7.33108079118706235100e-01  3.70848469752882436978e-05 7
2.75000000000000022204e-01  4.37500000000000000000e-01  7.45757185837651048743e-01  3.77923536646340707534e-05 7
2.81250000000000000000e-01  4.37500000000000000000e-01  7.58118787385429704351e-01  3.84868705706198355188e-05 7
2.87499999999999977796e-01  4.37500000000000000000e-01  7.70188118191901027743e-01  3.91680673745842256039e-05 7
2.93750000000000011102e-01  4.37500000000000000000e-01  7.81960525361265812450e-01  3.98356204857064355451e-05 7
2.99999999999999988898e-01  4.37500000000000000000e-01  7.93431470465883581511e-01  4.04892131279366296326e-05 7
3.06250000000000022204e-01  4.37500000000000000000e-01  8.04596531295974637388e-01  4.11285354112722600917e-05 7
3.12500000000000000000e-01  4.37500000000000000000e-01  8.15451403564523502610e-01  4.17532843935974895544e-05 7
3.18749999999999977796e-01  4.37500000000000000000e-01  8.25991902566685198828e-01  4.23631641758293042699e-05 7
3.25000000000000011102e-01  4.37500000000000000000e-01  8.36213964793145247967e-01  4.29578859395540746391e-05 7
3.31249999999999988898e-01  4.37500000000000000000e-01  8.46113649496703756903e-01  4.35371680335139288331e-05 7
3.37500000000000022204e-01  4.37500000000000000000e-01  8.55687140211567109915e-01  4.41007360251211011359e-05 7
3.43750000000000000000e-01  4.37500000000000000000e-01  8.64930746224712665438e-01  4.46483227601879306690e-05 7
3.49999999999999977796e-01  4.37500000000000000000e-01  8.73840903998781448614e-01  4.51796684145522320364e-05 7
3.56250000000000011102e-01  4.37500000000000000000e-01  8.82414178545921412677e-01  4.56945205621339667346e-05 7
3.62499999999999988898e-01  4.37500000000000000000e-01  8.90647264752111977870e-01  4.61926342000262835086e-05 7
3.68750000000000022204e-01  4.37500000000000000000e-01  8.98536988651364665337e-01  4.66737718284315761252e-05 7
3.75000000000000000000e-01  4.37500000000000000000e-01  9.06080308649423238343e-01  4.71377034645392711809e-05 7
3.81249999999999977796e-01  4.37500000000000000000e-01  9.13274316696391585957e-01  4.75842066973708455180e-05 7
3.87500000000000011102e-01  4.37500000000000000000e-01  9.20116239407879010770e-01  4.80130667359635054936e-05 7
3.93749999999999988898e-01  4.37500000000000000000e-01  9.26603439134257467202e-01  4.84240764270227330712e-05 7
4.00000000000000022204e-01  4.37500000000000000000e-01  9.32733414977549357694e-01  4.88170363123208161937e-05 7
4.06250000000000000000e-01  4.37500000000000000000e-01  9.38503803755646570650e-01  4.91917546294740049007e-05 7
4.12499999999999977796e-01  4.37500000000000000000e-01  9.43912380913377035974e-01  4.95480473708953539358e-05 7
4.18750000000000011102e-01  4.37500000000000000000e-01  9.48957061380186539523e-01  4.98857382821293882103e-05 7
4.24999999999999988898e-01  4.37500000000000000000e-01  9.53635900373989264800e-01  5.02046589128113396328e-05 7
4.31250000000000022204e-01  4.37500000000000000000e-01  9.57947094150991551587e-01  5.05046486088955859373e-05 7
4.37500000000000000000e-01  4.37500000000000000000e-01  9.61888980701094076231e-01  5.07855545492930104956e-05 7
4.43749999999999977796e-01  4.37500000000000000000e-01  9.65460040388686047130e-01  5.10472317480914483667e-05 7
4.50000000000000011102e-01  4.37500000000000000000e-01  9.68658896538531100084e-01  5.12895430724302769931e-05 7
4.56249999999999988898e-01  4.37500000000000000000e-01  9.71484315966547939958e-01  5.15123592490507320463e-05 7
4.62500000000000022204e-01  4.37500000000000000000e-01  9.73935209455265904488e-01  5.17155588748430261603e-05 7
4.68750000000000000000e-01  4.37500000000000000000e-01  9.76010632173794245858e-01  5.18990284085196762476e-05 7
4.74999999999999977796e-01  4.37500000000000000000e-01  9.77709784042107177271e-01  5.20626621796083099980e-05 7
4.81250000000000011102e-01  4.37500000000000000000e-01  9.79032010039535438572e-01  5.22063623831225953609e-05 7
4.87499999999999988898e-01  4.37500000000000000000e-01  9.79976800457335261996e-01  5.23300390719017016750e-05 7
4.93750000000000022204e-01  4.37500000000000000000e-01  9.80543791095232042387e-01  5.24336101499489615207e-05 7
5.00000000000000000000e-01  4.37500000000000000000e-01  9.80732763401870322184e-01  5.25170013601083951471e-05 7
5.06249999999999977796e-01  4.37500000000000000000e-01  9.80543644559117688608e-01  5.25801462643027406330e-05 7
5.12499999999999955591e-01  4.37500000000000000000e-01  9.79976507510170402604e-01  5.26229862367610934371e-05 7
5.18750000000000044409e-01  4.37500000000000000000e-01  9.79031570931487959975e-01  5.26454704306011933568e-05 7
5.25000000000000022204e-01  4.37500000000000000000e-01  9.77709199148525276435e-01  5.26475557615091460661e-05 7
5.31250000000000000000e-01  4.37500000000000000000e-01  9.76009901995326223378e-01  5.26292068766531784263e-05 7
5.37499999999999977796e-01  4.37500000000000000000e-01  9.73934334618010044693e-01  5.25903961307028211536e-05 7
5.43749999999999955591e-01  4.37500000000000000000e-01  9.71483297222252462078e-01  5.25311035445286123036e-05 7
5.50000000000000044409e-01  4.37500000000000000000e-01  9.68657734764826860996e-01  5.24513167765583432356e-05 7
5.56250000000000022204e-01  4.37500000000000000000e-01  9.65458736589356214530e-01  5.23510310779240484180e-05 7
5.62500000000000000000e-01  4.37500000000000000000e-01  9.61887536006387988685e-01  5.22302492553805564057e-05 7
5.68749999999999977796e-01  4.37500000000000000000e-01  9.57945509817980878076e-01  5.20889816195690968925e-05 7
5.74999999999999955591e-01  4.37500000000000000000e-01  9.53634177786959469358e-01  5.19272459427178034730e-05 7
5.81250000000000044409e-01  4.37500000000000000000e-01  9.48955202051061319501e-01  5.17450674073494099048e-05 7
5.87500000000000022204e-01  4.37500000000000000000e-01  9.43910386482203267455e-01  5.15424785446638722419e-05 7
5.93750000000000000000e-01  4.37500000000000000000e-01  9.38501675991090911211e-01  5.13195191851334442390e-05 7
5.99999999999999977796e-01  4.37500000000000000000e-01  9.32731155777466680590e-01  5.10762363951089426450e-05 7
6.06249999999999955591e-01  4.37500000000000000000e-01  9.26601050526273950503e-01  5.08126844105394326334e-05 7
6.12500000000000044409e-01  4.37500000000000000000e-01  9.20113723550035844667e-01  5.05289245790185859164e-05 7
6.18750000000000022204e-01  4.37500000000000000000e-01  9.13271675877814548272e-01  5.02250252745195524540e-05 7
6.25000000000000000000e-01  4.37500000000000000000e-01  9.06077545291037789177e-01  4.99010618499884373023e-05 7
6.31249999999999977796e-01  4.37500000000000000000e-01  8.98534105306660779711e-01  4.95571165323172024841e-05 7
6.37499999999999955591e-01  4.37500000000000000000e-01  8.90644264107946614928e-01  4.91932783655002481282e-05 7
6.43750000000000044409e-01  4.37500000000000000000e-01  8.82411063423353181356e-01  4.88096431302542654862e-05 7
6.50000000000000022204e-01  4.37500000000000000000e-01  8.73837677353950903480e-01  4.84063132452083877411e-05 7
6.56250000000000000000e-01  4.37500000000000000000e-01  8.64927411149779667987e-01  4.79833976932964034745e-05 7
6.62499999999999977796e-01  4.37500000000000000000e-01  8.55683699935665176284e-01  4.75410119272767772713e-05 7
6.68749999999999955591e-01  4.37500000000000000000e-01  8.46110107386960241804e-01  4.70792777772510717682e-05 7
6.75000000000000044409e-01  4.37500000000000000000e-01  8.36210324355711520639e-01  4.65983233733924251396e-05 7
6.81250000000000022204e-01  4.37500000000000000000e-01  8.25988167447850973879e-01  4.60982830101652751864e-05 7
6.87500000000000000000e-01  4.37500000000000000000e-01  8.15447577551824065445e-01  4.55792970932566987585e-05 7
6.93749999999999977796e-01  4.37500000000000000000e-01  8.04592618319379893066e-01  4.50415120060165818927e-05 7
6.99999999999999955591e-01  4.37500000000000000000e-01  7.93427474598986659515e-01  4.44850800248586253360e-05 7
7.06250000000000044409e-01  4.37500000000000000000e-01  7.81956450822552162627e-01  4.39101591993562578864e-05 7
7.12500000000000022204e-01  4.37500000000000000000e-01  7.70183969346030949943e-01  4.33169132446620253063e-05 7
7.18750000000000000000e-01  4.37500000000000000000e-01  7.58114568744547079326e-01  4.27055114533558821677e-05 7
7.24999999999999977796e-01  4.37500000000000000000e-01  7.45752902062755906876e-01  4.20761285597759382426e-05 7
7.31249999999999955591e-01  4.37500000000000000000e-01  7.33103735021058189325e-01  4.14289446236670855228e-05 7
7.37500000000000044409e-01  4.37500000000000000000e-01  7.20171944178335854403e-01  4.07641449466922267675e-05 7
7.43750000000000022204e-01  4.37500000000000000000e-01  7.06962515052036555296e-01  4.00819199130042491674e-05 7
7.50000000000000000000e-01  4.37500000000000000000e-01  6.93480540196164008115e-01  3.93824649097540557818e-05 7
7.56249999999999977796e-01  4.37500000000000000000e-01  6.79731217238074059139e-01  3.86659801828725946393e-05 7
7.62499999999999955591e-01  4.37500000000000000000e-01  6.65719846874732290587e-01  3.79326707160565490540e-05 7
7.68750000000000044409e-01  4.37500000000000000000e-01  6.51451830829215539076e-01  3.71827461300711092917e-05 7
7.75000000000000022204e-01  4.37500000000000000000e-01  6.36932669768316417347e-01  3.64164205336470203633e-05 7
7.81250000000000000000e-01  4.37500000000000000000e-01  6.22167961181935513792e-01  3.56339124317761601901e-05 7
7.87499999999999977796e-01  4.37500000000000000000e-01  6.07163397225238044008e-01  3.48354445509624355282e-05 7
7.93749999999999955591e-01  4.37500000000000000000e-01  5.91924762524207115355e-01  3.40212437623943486642e-05 7
8.00000000000000044409e-01  4.37500000000000000000e-01  5.76457931945612234159e-01  3.31915409447214315719e-05 7
8.06250000000000022204e-01  4.37500000000000000000e-01  5.60768868332190195680e-01  3.23465708396142304082e-05 7
8.12500000000000000000e-01  4.37500000000000000000e-01  5.44863620203876464210e-01  3.14865719420742706802e-05 7
8.18749999999999977796e-01  4.37500000000000000000e-01  5.28748319426026958112e-01  3.06117863659860489634e-05 7
8.24999999999999955591e-01  4.37500000000000000000e-01  5.12429178845493660255e-01  2.97224597237688570317e-05 7
8.31250000000000044409e-01  4.37500000000000000000e-01  4.95912489895470154355e-01  2.88188410174083919912e-05 7
8.37500000000000022204e-01  4.37500000000000000000e-01  4.79204620170109563126e-01  2.79011824558805798802e-05 7
8.43750000000000000000e-01  4.37500000000000000000e-01  4.62312010969651743242e-01  2.69697394024159819992e-05 7
8.49999999999999977796e-01  4.37500000000000000000e-01  4.45241174817261942120e-01  2.60247701922566854194e-05 7
8.56249999999999955591e-01  4.37500000000000000000e-01  4.27998692948318715246e-01  2.50665360463364628174e-05 7
8.62500000000000044409e-01  4.37500000000000000000e-01  4.10591212773262936864e-01  2.40953009262301343085e-05 7
8.68750000000000022204e-01  4.37500000000000000000e-01  3.93025445314927834861e-01  2.31113314038688955065e-05 7
8.75000000000000000000e-01  4.37500000000000000000e-01  3.75308162621286023342e-01  2.21148965793283025505e-05 7
8.81249999999999977796e-01  4.37500000000000000000e-01  3.57446195154758117329e-01  2.11062679192353108704e-05 7
8.87499999999999955591e-01  4.37500000000000000000e-01  3.39446429158951568095e-01  2.00857191385850342158e-05 7
8.93750000000000044409e-01  4.37500000000000000000e-01  3.21315804003858229709e-01  1.90535261179181070190e-05 7
9.00000000000000022204e-01  4.37500000000000000000e-01  3.03061309510664234068e-01  1.80099667321242939977e-05 7
9.06250000000000000000e-01  4.37500000000000000000e-01  2.84689983256992407146e-01  1.69553207867156885413e-05 7
9.12499999999999977796e-01  4.37500000000000000000e-01  2.66208907863831889529e-01  1.58898698642828684058e-05 7
9.18749999999999955591e-01  4.37500000000000000000e-01  2.47625208265061819146e-01  1.48138972039524308144e-05 7
9.25000000000000044409e-01  4.37500000000000000000e-01  2.28946048960616266310e-01  1.37276876321923424484e-05 7
9.31250000000000022204e-01  4.37500000000000000000e-01  2.10178631254490072555e-01  1.26315273945576400649e-05 7
9.37500000000000000000e-01  4.37500000000000000000e-01  1.91330190478446016122e-01  1.15257040992078341191e-05 7
9.43749999999999977796e-01  4.37500000000000000000e-01  1.72407993202729620252e-01  1.04105065312776190467e-05 7
9.49999999999999955591e-01  4.37500000000000000000e-01  1.53419334434606702278e-01  9.28622460558137241549e-06 7
9.56250000000000044409e-01  4.37500000000000000000e-01  1.34371534806008940954e-01  8.15314924329513246448e-06 7
9.62500000000000022204e-01  4.37500000000000000000e-01  1.15271937751316458365e-01  7.01157223467752110935e-06 7
9.68750000000000000000e-01  4.37500000000000000000e-01  9.61279066762975864524e-02  5.86178615351318210713e-06 7
9.74999999999999977796e-01  4.37500000000000000000e-01  7.69468221193893020526e-02  4.70408422911794410481e-06 7
9.81249999999999955591e-01  4.37500000000000000000e-01  5.77360789063414009403e-02  3.53876025400295946000e-06 7
9.87500000000000044409e-01  4.37500000000000000000e-01  3.85030832993620633631e-02  2.36610847510754229717e-06 7
9.93750000000000022204e-01  4.37500000000000000000e-01  1.92552501418900359753e-02  1.18642345831032614001e-06 7
1.00000000000000000000e+00  4.37500000000000000000e-01  0.00000000000000000000e+00  1.20111555429665550461e-16 7
0.00000000000000000000e+00  4.43749999999999977796e-01  0.00000000000000000000e+00  0.00000000000000000000e+00 7
6.25000000000000034694e-03  4.43749999999999977796e-01  1.93270336339477454002e-02  8.94854000951100791994e-07 7
1.25000000000000006939e-02  4.43749999999999977796e-01  3.86466106684741558808e-02  1.79502306719980797567e-06 7
1.87499999999999993061e-02  4.43749999999999977796e-01  5.79512831828619054408e-02  2.70001617197479504284e-06 7
2.50000000000000013878e-02  4.43749999999999977796e-01  7.72336090001290165308e-02  3.60934266965817762696e-06 7
3.12500000000000000000e-02  4.43749999999999977796e-01  9.64861545561290639972e-02  4.52251248558854790360e-06 7
3.74999999999999986122e-02  4.43749999999999977796e-01  1.15701497765328301104e-01  5.43903630835507190255e-06 7
4.37499999999999972244e-02  4.43749999999999977796e-01  1.34872230882159244159e-01  6.35842578014522707974e-06 7
5.00000000000000027756e-02  4.43749999999999977796e-01  1.53990963356845450560e-01  7.28019368714805104048e-06 7
5.62500000000000013878e-02  4.43749999999999977796e-01  1.73050324684597800484e-01  8.20385414868063378435e-06 7
6.25000000000000000000e-02  4.43749999999999977796e-01  1.92042967247081863835e-01  9.12892280707788827954e-06 7
6.87500000000000055511e-02  4.43749999999999977796e-01  2.10961569145063670971e-01  1.00549170155284084416e-05 7
7.49999999999999972244e-02  4.43749999999999977796e-01  2.29798837021141594272e-01  1.09813560233706919433e-05 7
8.12500000000000027756e-02  4.43749999999999977796e-01  2.48547508871475364423e-01  1.19077611611395628444e-05 7
8.74999999999999944489e-02  4.43749999999999977796e-01  2.67200356845428033115e-01  1.28336560232811258686e-05 7
9.37500000000000000000e-02  4.43749999999999977796e-01  2.85750190032041717636e-01  1.37585666504236314722e-05 7
1.00000000000000005551e-01  4.43749999999999977796e-01  3.04189857232276927856e-01  1.46820217058474256078e-05 7
1.06249999999999997224e-01  4.43749999999999977796e-01  3.22512249715936838435e-01  1.56035526560072135283e-05 7
1.12500000000000002776e-01  4.43749999999999977796e-01  3.40710303962229843489e-01  1.65226939397022931644e-05 7
1.18749999999999994449e-01  4.43749999999999977796e-01  3.58777004382896447243e-01  1.74389831421040142345e-05 7
1.25000000000000000000e-01  4.43749999999999977796e-01  3.76705386026859379012e-01  1.83519611661187020957e-05 7
1.31250000000000005551e-01  4.43749999999999977796e-01  3.94488537265360483808e-01  1.92611723933144851628e-05 7
1.37500000000000011102e-01  4.43749999999999977796e-01  4.12119602456536004986e-01  2.01661648491224809732e-05 7
1.43749999999999988898e-01  4.43749999999999977796e-01  4.29591784588407910039e-01  2.10664903657065138987e-05 7
1.49999999999999994449e-01  4.43749999999999977796e-01  4.46898347899283898688e-01  2.19617047329534464950e-05 7
1.56250000000000000000e-01  4.43749999999999977796e-01  4.64032620474529755583e-01  2.28513678608988080043e-05 7
1.62500000000000005551e-01  4.43749999999999977796e-01  4.80987996818751206707e-01  2.37350439182271166771e-05 7
1.68750000000000011102e-01  4.43749999999999977796e-01  4.97757940402344889463e-01  2.46123014933652406455e-05 7
1.74999999999999988898e-01  4.43749999999999977796e-01  5.14335986181485793622e-01  2.54827137298185846248e-05 7
1.81249999999999994449e-01  4.43749999999999977796e-01  5.30715743090549141314e-01  2.63458584665032802263e-05 7
1.87500000000000000000e-01  4.43749999999999977796e-01  5.46890896506004309252e-01  2.72013183840735806029e-05 7
1.93750000000000005551e-01  4.43749999999999977796e-01  5.62855210680863971007e-01  2.80486811238267463864e-05 7
2.00000000000000011102e-01  4.43749999999999977796e-01  5.78602531148693421947e-01  2.88875394369725313481e-05 7
2.06249999999999988898e-01  4.43749999999999977796e-01  5.94126787096314390446e-01  2.97174913017617114974e-05 7
2.12499999999999994449e-01  4.43749999999999977796e-01  6.09421993704254871815e-01  3.05381400422799487160e-05 7
2.18750000000000000000e-01  4.43749999999999977796e-01  6.24482254454025609292e-01  3.13490944673366911388e-05 7
2.25000000000000005551e-01  4.43749999999999977796e-01  6.39301763401392553199e-01  3.21499689681647993211e-05 7
2.31250000000000011102e-01  4.43749999999999977796e-01  6.53874807414698833163e-01  3.29403836480945955145e-05 7
2.37499999999999988898e-01  4.43749999999999977796e-01  6.68195768377429888396e-01  3.37199644236951812104e-05 7
2.43749999999999994449e-01  4.43749999999999977796e-01  6.82259125354134798869e-01  3.44883431400155870961e-05 7
2.50000000000000000000e-01  4.43749999999999977796e-01  6.96059456718888913684e-01  3.52451576739465366472e-05 7
2.56249999999999977796e-01  4.43749999999999977796e-01  7.09591442245478543072e-01  3.59900520304767823632e-05 7
2.62500000000000011102e-01  4.43749999999999977796e-01  7.22849865158475601845e-01  3.67226764533823413217e-05 7
2.68749999999999988898e-01  4.43749999999999977796e-01  7.35829614144456578551e-01  3.74426875063837982793e-05 7
2.75000000000000022204e-01  4.43749999999999977796e-01  7.48525685322542821964e-01  3.81497481759529577516e-05 7
2.81250000000000000000e-01  4.43749999999999977796e-01  7.60933184173527399352e-01  3.88435279630172658472e-05 7
2.87499999999999977796e-01  4.43749999999999977796e-01  7.73047327426863217781e-01  3.95237029550132845657e-05 7
2.93750000000000011102e-01  4.43749999999999977796e-01  7.84863444904725704454e-01  4.01899559290264107858e-05 7
2.99999999999999988898e-01  4.43749999999999977796e-01  7.96376981322516330764e-01  4.08419764122980311072e-05 7
3.06250000000000022204e-01  4.43749999999999977796e-01  8.07583498045026826340e-01  4.14794607875856868873e-05 7
3.12500000000000000000e-01  4.43749999999999977796e-01  8.18478674797692318243e-01  4.21021123350184822698e-05 7
3.18749999999999977796e-01  4.43749999999999977796e-01  8.29058311332154351803e-01  4.27096413316840894936e-05 7
3.25000000000000011102e-01  4.43749999999999977796e-01  8.39318329045597666394e-01  4.33017651023659411180e-05 7
3.31249999999999988898e-01  4.43749999999999977796e-01  8.49254772553148629122e-01  4.38782081088051612028e-05 7
3.37500000000000022204e-01  4.43749999999999977796e-01  8.58863811212829619812e-01  4.44387019777892078309e-05 7
3.43750000000000000000e-01  4.43749999999999977796e-01  8.68141740602346834166e-01  4.49829856022931906523e-05 7
3.49999999999999977796e-01  4.43749999999999977796e-01  8.77084983947286622730e-01  4.55108051712338479433e-05 7
3.56250000000000011102e-01  4.43749999999999977796e-01  8.85690093500058783782e-01  4.60219142386364410413e-05 7
3.62499999999999988898e-01  4.43749999999999977796e-01  8.93953751869120183393e-01  4.65160737663783407925e-05 7
3.68750000000000022204e-01  4.43749999999999977796e-01  9.01872773297920371505e-01  4.69930521905803644245e-05 7
3.75000000000000000000e-01  4.43749999999999977796e-01  9.09444104893134430689e-01  4.74526254450324813661e-05 7
3.81249999999999977796e-01  4.43749999999999977796e-01  9.16664827801631720838e-01  4.78945770294725292615e-05 7
3.87500000000000011102e-01  4.43749999999999977796e-01  9.23532158335803488036e-01  4.83186980382299680059e-05 7
3.93749999999999988898e-01  4.43749999999999977796e-01  9.30043449046770498434e-01  4.87247871967522172554e-05 7
4.00000000000000022204e-01  4.43749999999999977796e-01  9.36196189745056361886e-01  4.91126509096773133933e-05 7
4.06250000000000000000e-01  4.43749999999999977796e-01  9.41988008468364723669e-01  4.94821032823722362082e-05 7
4.12499999999999977796e-01  4.43749999999999977796e-01  9.47416672396053538563e-01  4.98329661555718672616e-05 7
4.18750000000000011102e-01  4.43749999999999977796e-01  9.52480088709965810878e-01  5.01650691387967029300e-05 7
4.24999999999999988898e-01  4.43749999999999977796e-01  9.57176305401303606502e-01  5.04782496222322407675e-05 7
4.31250000000000022204e-01  4.43749999999999977796e-01  9.61503512023193174230e-01  5.07723528117010047822e-05 7
4.37500000000000000000e-01  4.43749999999999977796e-01  9.65460040388685380996e-01  5.10472317487575821815e-05 7
4.43749999999999977796e-01  4.43749999999999977796e-01  9.69044365213936775838e-01  5.13027473052485305516e-05 7
4.50000000000000011102e-01  4.43749999999999977796e-01  9.72255104706240658174e-01  5.15387682308299233114e-05 7
4.56249999999999988898e-01  4.43749999999999977796e-01  9.75091021096806453983e-01  5.17551711317620899422e-05 7
4.62500000000000022204e-01  4.43749999999999977796e-01  9.77551021117960772244e-01  5.19518405015517714673e-05 7
4.68750000000000000000e-01  4.43749999999999977796e-01  9.79634156424675439645e-01  5.21286687120703362552e-05 7
4.74999999999999977796e-01  4.43749999999999977796e-01  9.81339623960204909814e-01  5.22855560233237426360e-05 7
4.81250000000000011102e-01  4.43749999999999977796e-01  9.82666766265723912177e-01  5.24224105775683568709e-05 7
4.87499999999999988898e-01  4.43749999999999977796e-01  9.83615071733826784595e-01  5.25391483979786855230e-05 7
4.93750000000000022204e-01  4.43749999999999977796e-01  9.84184174805805445096e-01  5.26356933785443459328e-05 7
5.00000000000000000000e-01  4.43749999999999977796e-01  9.84373856112614076252e-01  5.27119772775197503734e-05 7
5.06249999999999977796e-01  4.43749999999999977796e-01  9.84184042559477445522e-01  5.27679397065439204084e-05 7
5.12499999999999955591e-01  4.43749999999999977796e-01  9.83614807354115883165e-01  5.28035281088801156102e-05 7
5.18750000000000044409e-01  4.43749999999999977796e-01  9.82666369978557274756e-01  5.28186977442057781218e-05 7
5.25000000000000022204e-01  4.43749999999999977796e-01  9.81339096104567043533e-01  5.28134116611900239491e-05 7
5.31250000000000000000e-01  4.43749999999999977796e-01  9.79633497452703116970e-01  5.27876406845040335725e-05 7
5.37499999999999977796e-01  4.43749999999999977796e-01  9.77550231595089802461e-01  5.27413633725215547088e-05 7
5.43749999999999955591e-01  4.43749999999999977796e-01  9.75090101701942213452e-01  5.26745659960026202384e-05 7
5.50000000000000044409e-01  4.43749999999999977796e-01  9.72254056231971697244e-01  5.25872424996798315533e-05 7
5.56250000000000022204e-01  4.43749999999999977796e-01  9.69043188566775515191e-01  5.24793944665091771640e-05 7
5.62500000000000000000e-01  4.43749999999999977796e-01  9.65458736589356547597e-01  5.23510310775909815106e-05 7
5.68749999999999977796e-01  4.43749999999999977796e-01  9.61502082206939112652e-01  5.22021690657625825338e-05 7
5.74999999999999955591e-01  4.43749999999999977796e-01  9.57174750818256536711e-01  5.20328326694130538499e-05 7
5.81250000000000044409e-01  4.43749999999999977796e-01  9.52478410725510760138e-01  5.18430535938474434943e-05 7
5.87500000000000022204e-01  4.43749999999999977796e-01  9.47414872491266324417e-01  5.16328709427860133019e-05 7
5.93750000000000000000e-01  4.43749999999999977796e-01  9.41986088240473362632e-01  5.14023311737332733173e-05 7
5.99999999999999977796e-01  4.43749999999999977796e-01  9.36194150907935340733e-01  5.11514880308094888051e-05 7
6.06249999999999955591e-01  4.43749999999999977796e-01  9.30041293431471349784e-01  5.08804024960118894683e-05 7
6.12500000000000044409e-01  4.43749999999999977796e-01  9.23529887891131662236e-01  5.05891427099447454907e-05 7
6.18750000000000022204e-01  4.43749999999999977796e-01  9.16662444594746217419e-01  5.02777839150869709783e-05 7
6.25000000000000000000e-01  4.43749999999999977796e-01  9.09441611110191727718e-01  4.99464083877354525498e-05 7
6.31249999999999977796e-01  4.43749999999999977796e-01  9.01870171244765317375e-01  4.95951053456344936876e-05 7
6.37499999999999955591e-01  4.43749999999999977796e-01  8.93951043971988768000e-01  4.92239708980157786300e-05 7