Titile = 'Poisson'  
VARIABLES = X, Y, U, Error, Rank 
zone N= 3381, E = 6400
DATAPACKING=POINT, ZONETYPE=FETRIANGLE
0.00000000000000000000e+00  5.00000000000000000000e-01  0.00000000000000000000e+00  0.00000000000000000000e+00 4
6.25000000000000034694e-03  5.00000000000000000000e-01  1.96326411574792684955e-02  1.05130314903209565180e-06 4
1.25000000000000006939e-02  5.00000000000000000000e-01  3.92577135580679317806e-02  2.10220100067826098922e-06 4
1.87499999999999993061e-02  5.00000000000000000000e-01  5.88676513627750877533e-02  3.15228841394482595106e-06 4
2.50000000000000013878e-02  5.00000000000000000000e-01  7.84548945672850772670e-02  4.20116055986630154706e-06 4
3.12500000000000000000e-02  5.00000000000000000000e-01  9.80118919164822410828e-02  5.24841307836254600261e-06 4
3.74999999999999986122e-02  5.00000000000000000000e-01  1.17531103815603610308e-01  6.29364223403428013626e-06 4
4.37499999999999972244e-02  5.00000000000000000000e-01  1.37005005236897403620e-01  7.33644507061592676678e-06 4
5.00000000000000027756e-02  5.00000000000000000000e-01  1.56426088620662651074e-01  8.37641956821788546961e-06 4
5.62500000000000013878e-02  5.00000000000000000000e-01  1.75786866769558319801e-01  9.41316479619036527993e-06 4
6.25000000000000000000e-02  5.00000000000000000000e-01  1.95079875735058194675e-01  1.04462810700534092234e-05 4
6.87500000000000055511e-02  5.00000000000000000000e-01  2.14297677694947064087e-01  1.14753701037084709924e-05 4
7.49999999999999972244e-02  5.00000000000000000000e-01  2.33432863820741659522e-01  1.25000351637316597930e-05 4
8.12500000000000027756e-02  5.00000000000000000000e-01  2.52478057133936117928e-01  1.35198812218351172021e-05 4
8.74999999999999944489e-02  5.00000000000000000000e-01  2.71425915349964852474e-01  1.45345151094100621947e-05 4
9.37500000000000000000e-02  5.00000000000000000000e-01  2.90269133708797588689e-01  1.55435456647423642096e-05 4
1.00000000000000005551e-01  5.00000000000000000000e-01  3.09000447791061672032e-01  1.65465838857237201864e-05 4
1.06249999999999997224e-01  5.00000000000000000000e-01  3.27612636318608874131e-01  1.75432430846167441985e-05 4
1.12500000000000002776e-01  5.00000000000000000000e-01  3.46098523938463797922e-01  1.85331390291643138823e-05 4
1.18749999999999994449e-01  5.00000000000000000000e-01  3.64450983989053345358e-01  1.95158900962999481976e-05 4
1.25000000000000000000e-01  5.00000000000000000000e-01  3.82662941247673582534e-01  2.04911174161992448717e-05 4
1.31250000000000005551e-01  5.00000000000000000000e-01  4.00727374658121804352e-01  2.14584450191623865578e-05 4
1.37500000000000011102e-01  5.00000000000000000000e-01  4.18637320037443638743e-01  2.24174999844950484373e-05 4
1.43749999999999988898e-01  5.00000000000000000000e-01  4.36385872760766457823e-01  2.33679125755670291653e-05 4
1.49999999999999994449e-01  5.00000000000000000000e-01  4.53966190423153781452e-01  2.43093163929675171175e-05 4
1.56250000000000000000e-01  5.00000000000000000000e-01  4.71371495477493573922e-01  2.52413485040681173643e-05 4
1.62500000000000005551e-01  5.00000000000000000000e-01  4.88595077847357950329e-01  2.61636495969552740348e-05 4
1.68750000000000011102e-01  5.00000000000000000000e-01  5.05630297513881332705e-01  2.70758641032209368404e-05 4
1.74999999999999988898e-01  5.00000000000000000000e-01  5.22470587075598791316e-01  2.79776403500076042974e-05 4
1.81249999999999994449e-01  5.00000000000000000000e-01  5.39109454280317090813e-01  2.88686306830765460063e-05 4
1.87500000000000000000e-01  5.00000000000000000000e-01  5.55540484527992095565e-01  2.97484916100820839802e-05 4
1.93750000000000005551e-01  5.00000000000000000000e-01  5.71757343343685442427e-01  3.06168839268039505441e-05 4
2.00000000000000011102e-01  5.00000000000000000000e-01  5.87753778819622318963e-01  3.14734728508181405005e-05 4
2.06249999999999988898e-01  5.00000000000000000000e-01  6.03523624025417704253e-01  3.23179281537244733613e-05 4
2.12499999999999994449e-01  5.00000000000000000000e-01  6.19060799385555027285e-01  3.31499242789412562615e-05 4
2.18750000000000000000e-01  5.00000000000000000000e-01  6.34359315023167114056e-01  3.39691404783737382900e-05 4
2.25000000000000005551e-01  5.00000000000000000000e-01  6.49413273069256336001e-01  3.47752609273221935382e-05 4
2.31250000000000011102e-01  5.00000000000000000000e-01  6.64216869936430698296e-01  3.55679748510473459078e-05 4
2.37499999999999988898e-01  5.00000000000000000000e-01  6.78764398556299219933e-01  3.63469766424540097205e-05 4
2.43749999999999994449e-01  5.00000000000000000000e-01  6.93050250579650528593e-01  3.71119659853258454518e-05 4
2.50000000000000000000e-01  5.00000000000000000000e-01  7.07068918538589996636e-01  3.78626479574650787185e-05 4
2.56249999999999977796e-01  5.00000000000000000000e-01  7.20814997969760895558e-01  3.85987331578130365983e-05 4
2.62500000000000011102e-01  5.00000000000000000000e-01  7.34283189497873745033e-01  3.93199378118103126667e-05 4
2.68749999999999988898e-01  5.00000000000000000000e-01  7.47468300878716962465e-01  4.00259838797545342004e-05 4
2.75000000000000022204e-01  5.00000000000000000000e-01  7.60365249000858889339e-01  4.07165991721525344360e-05 4
2.81250000000000000000e-01  5.00000000000000000000e-01  7.72969061845297567004e-01  4.13915174394263729596e-05 4
2.87499999999999977796e-01  5.00000000000000000000e-01  7.85274880402257347001e-01  4.20504784874875525702e-05 4
2.93750000000000011102e-01  5.00000000000000000000e-01  7.97277960544431341106e-01  4.26932282757697123543e-05 4
2.99999999999999988898e-01  5.00000000000000000000e-01  8.08973674855933855277e-01  4.33195190135959862232e-05 4
3.06250000000000022204e-01  5.00000000000000000000e-01  8.20357514416261368595e-01  4.39291092523275139570e-05 4
3.12500000000000000000e-01  5.00000000000000000000e-01  8.31425090538564948162e-01  4.45217639802875098098e-05 4
3.18749999999999977796e-01  5.00000000000000000000e-01  8.42172136461563525245e-01  4.50972547229033793315e-05 4
3.25000000000000011102e-01  5.00000000000000000000e-01  8.52594508994476973918e-01  4.56553596152042828749e-05 4
3.31249999999999988898e-01  5.00000000000000000000e-01  8.62688190114295649913e-01  4.61958634960790703872e-05 4
3.37500000000000022204e-01  5.00000000000000000000e-01  8.72449288514804632833e-01  4.67185579924311866762e-05 4
3.43750000000000000000e-01  5.00000000000000000000e-01  8.81874041106757933228e-01  4.72232415970053054366e-05 4
3.49999999999999977796e-01  5.00000000000000000000e-01  8.90958814468626680849e-01  4.77097197411069373629e-05 4
3.56250000000000011102e-01  5.00000000000000000000e-01  8.99700106247340647414e-01  4.81778048808667591629e-05 4
3.62499999999999988898e-01  5.00000000000000000000e-01  9.08094546508521949235e-01  4.86273165593020806341e-05 4
3.68750000000000022204e-01  5.00000000000000000000e-01  9.16138899035654818981e-01  4.90580814811458765234e-05 4
3.75000000000000000000e-01  5.00000000000000000000e-01  9.23830062577706945248e-01  4.94699335797932349124e-05 4
3.81249999999999977796e-01  5.00000000000000000000e-01  9.31165072044727093470e-01  4.98627140763652221267e-05 4
3.87500000000000011102e-01  5.00000000000000000000e-01  9.38141099650937393406e-01  5.02362715467663534241e-05 4
3.93749999999999988898e-01  5.00000000000000000000e-01  9.44755456004897187228e-01  5.05904619807484579042e-05 4
4.00000000000000022204e-01  5.00000000000000000000e-01  9.51005591146326434426e-01  5.09251488270967556105e-05 4
4.06250000000000000000e-01  5.00000000000000000000e-01  9.56889095529151800790e-01  5.12402030571346145393e-05 4
4.12499999999999977796e-01  5.00000000000000000000e-01  9.62403700950430263106e-01  5.15355032170150550996e-05 4
4.18750000000000011102e-01  5.00000000000000000000e-01  9.67547281424802396721e-01  5.18109354573637048702e-05 4
4.24999999999999988898e-01  5.00000000000000000000e-01  9.72317854004079884511e-01  5.20663935966725333060e-05 4
4.31250000000000022204e-01  5.00000000000000000000e-01  9.76713579541724330468e-01  5.23017791481672489340e-05 4
4.37500000000000000000e-01  5.00000000000000000000e-01  9.80732763401859886088e-01  5.25170013705444915786e-05 4
4.43749999999999977796e-01  5.00000000000000000000e-01  9.84373856112604195268e-01  5.27119772874007352925e-05 4
4.50000000000000011102e-01  5.00000000000000000000e-01  9.87635453963403242561e-01  5.28866317345277892059e-05 4
4.56249999999999988898e-01  5.00000000000000000000e-01  9.90516299546198686343e-01  5.30408973785645443400e-05 4
4.62500000000000022204e-01  5.00000000000000000000e-01  9.93015282240179097961e-01  5.31747147471950398767e-05 4
4.68750000000000000000e-01  5.00000000000000000000e-01  9.95131438639947019098e-01  5.32880322497986114172e-05 4
4.74999999999999977796e-01  5.00000000000000000000e-01  9.96863952926925089848e-01  5.33808062028739982452e-05 4
4.81250000000000011102e-01  5.00000000000000000000e-01  9.98212157183878567857e-01  5.34530008373668152899e-05 4
4.87499999999999988898e-01  5.00000000000000000000e-01  9.99175531652399695481e-01  5.35045883232054819700e-05 4
4.93750000000000022204e-01  5.00000000000000000000e-01  9.99753704933292741686e-01  5.35355487720767797555e-05 4
5.00000000000000000000e-01  5.00000000000000000000e-01  9.99946454129752915208e-01  5.35458702470847924815e-05 4
5.06249999999999977796e-01  5.00000000000000000000e-01  9.99753704933295739288e-01  5.35355487690791775890e-05 4
5.12499999999999955591e-01  5.00000000000000000000e-01  9.99175531652404358418e-01  5.35045883185425452666e-05 4
5.18750000000000044409e-01  5.00000000000000000000e-01  9.98212157183883230793e-01  5.34530008327038785865e-05 4
5.25000000000000022204e-01  5.00000000000000000000e-01  9.96863952926932084253e-01  5.33808061958795931901e-05 4
5.31250000000000000000e-01  5.00000000000000000000e-01  9.95131438639955567815e-01  5.32880322413609164300e-05 4
5.37499999999999977796e-01  5.00000000000000000000e-01  9.93015282240190644281e-01  5.31747147356487204206e-05 4
5.43749999999999955591e-01  5.00000000000000000000e-01  9.90516299546210121640e-01  5.30408973671292471863e-05 4
5.50000000000000044409e-01  5.00000000000000000000e-01  9.87635453963416565237e-01  5.28866317210940906079e-05 4
5.56250000000000022204e-01  5.00000000000000000000e-01  9.84373856112619183278e-01  5.27119772724127244601e-05 4
5.62500000000000000000e-01  5.00000000000000000000e-01  9.80732763401875984322e-01  5.25170013544462577215e-05 4
5.68749999999999977796e-01  5.00000000000000000000e-01  9.76713579541741649948e-01  5.23017791308477697498e-05 4
5.74999999999999955591e-01  5.00000000000000000000e-01  9.72317854004099757503e-01  5.20663935769105634677e-05 4
5.81250000000000044409e-01  5.00000000000000000000e-01  9.67547281424822824825e-01  5.18109354369356012171e-05 4
5.87500000000000022204e-01  5.00000000000000000000e-01  9.62403700950454132901e-01  5.15355031931452600702e-05 4
5.93750000000000000000e-01  5.00000000000000000000e-01  9.56889095529175115473e-01  5.12402030338199310222e-05 4
5.99999999999999977796e-01  5.00000000000000000000e-01  9.51005591146354634091e-01  5.09251487990081130874e-05 4
6.06249999999999955591e-01  5.00000000000000000000e-01  9.44755456004925386893e-01  5.05904619526598153811e-05 4
6.12500000000000044409e-01  5.00000000000000000000e-01  9.38141099650967036361e-01  5.02362715170123763642e-05 4
6.18750000000000022204e-01  5.00000000000000000000e-01  9.31165072044759178915e-01  4.98627140443907990175e-05 4
6.25000000000000000000e-01  5.00000000000000000000e-01  9.23830062577741251140e-01  4.94699335454873434514e-05 4
6.31249999999999977796e-01  5.00000000000000000000e-01  9.16138899035690124073e-01  4.90580814458407843404e-05 4
6.37499999999999955591e-01  5.00000000000000000000e-01  9.08094546508560807041e-01  4.86273165206663193771e-05 4
6.43750000000000044409e-01  5.00000000000000000000e-01  8.99700106247380060331e-01  4.81778048413428194863e-05 4
6.50000000000000022204e-01  5.00000000000000000000e-01  8.90958814468668092168e-01  4.77097196998066408469e-05 4
6.56250000000000000000e-01  5.00000000000000000000e-01  8.81874041106801453971e-01  4.72232415535955851738e-05 4
6.62499999999999977796e-01  5.00000000000000000000e-01  8.72449288514846266196e-01  4.67185579510198678577e-05 4
6.68749999999999955591e-01  5.00000000000000000000e-01  8.62688190114341058035e-01  4.61958634508929932849e-05 4
6.75000000000000044409e-01  5.00000000000000000000e-01  8.52594508994520938749e-01  4.56553595713504734022e-05 4
6.81250000000000022204e-01  5.00000000000000000000e-01  8.42172136461610265634e-01  4.50972546762740122972e-05 4
6.87500000000000000000e-01  5.00000000000000000000e-01  8.31425090538612798774e-01  4.45217639326589420534e-05 4
6.93749999999999977796e-01  5.00000000000000000000e-01  8.20357514416307553873e-01  4.39291092061422361326e-05 4
6.99999999999999955591e-01  5.00000000000000000000e-01  8.08973674855980484644e-01  4.33195189669666191890e-05 4
7.06250000000000044409e-01  5.00000000000000000000e-01  7.97277960544477304339e-01  4.26932282298064791348e-05 4
7.12500000000000022204e-01  5.00000000000000000000e-01  7.85274880402303199212e-01  4.20504784416353416532e-05 4
7.18750000000000000000e-01  5.00000000000000000000e-01  7.72969061845343863304e-01  4.13915173932410951352e-05 4
7.24999999999999977796e-01  5.00000000000000000000e-01  7.60365249000905962795e-01  4.07165991250790781919e-05 4
7.31249999999999955591e-01  5.00000000000000000000e-01  7.47468300878761926498e-01  4.00259838351235686105e-05 4
7.37500000000000044409e-01  5.00000000000000000000e-01  7.34283189497919930311e-01  3.93199377655140125398e-05 4
7.43750000000000022204e-01  5.00000000000000000000e-01  7.20814997969803639144e-01  3.85987331152914947552e-05 4
7.50000000000000000000e-01  5.00000000000000000000e-01  7.07068918538636181914e-01  3.78626479113908231966e-05 4
7.56249999999999977796e-01  5.00000000000000000000e-01  6.93050250579696269781e-01  3.71119659395846568373e-05 4
7.62499999999999955591e-01  5.00000000000000000000e-01  6.78764398556338743873e-01  3.63469766032631369512e-05 4
7.68750000000000044409e-01  5.00000000000000000000e-01  6.64216869936474663128e-01  3.55679748068604695277e-05 4
7.75000000000000022204e-01  5.00000000000000000000e-01  6.49413273069299634699e-01  3.47752608841345178803e-05 4
7.81250000000000000000e-01  5.00000000000000000000e-01  6.34359315023206971063e-01  3.39691404385167317059e-05 4
7.87499999999999977796e-01  5.00000000000000000000e-01  6.19060799385595328381e-01  3.31499242388622050726e-05 4
7.93749999999999955591e-01  5.00000000000000000000e-01  6.03523624025460225795e-01  3.23179281113139538206e-05 4
8.00000000000000044409e-01  5.00000000000000000000e-01  5.87753778819660399613e-01  3.14734728128485130583e-05 4
8.06250000000000022204e-01  5.00000000000000000000e-01  5.71757343343726964768e-01  3.06168838852816094231e-05 4
8.12500000000000000000e-01  5.00000000000000000000e-01  5.55540484528032396661e-01  2.97484915697809881863e-05 4
8.18749999999999977796e-01  5.00000000000000000000e-01  5.39109454280353728173e-01  2.88686306466612307986e-05 4
8.24999999999999955591e-01  5.00000000000000000000e-01  5.22470587075636871965e-01  2.79776403120379768552e-05 4
8.31250000000000044409e-01  5.00000000000000000000e-01  5.05630297513914084284e-01  2.70758640704693576140e-05 4
8.37500000000000022204e-01  5.00000000000000000000e-01  4.88595077847394532178e-01  2.61636495603179142222e-05 4
8.43750000000000000000e-01  5.00000000000000000000e-01  4.71371495477529156570e-01  2.52413484687075140300e-05 4
8.49999999999999977796e-01  5.00000000000000000000e-01  4.53966190423187421210e-01  2.43093163594387817739e-05 4
8.56249999999999955591e-01  5.00000000000000000000e-01  4.36385872760800541670e-01  2.33679125419272715192e-05 4
8.62500000000000044409e-01  5.00000000000000000000e-01  4.18637320037476223789e-01  2.24174999517434692109e-05 4
8.68750000000000022204e-01  5.00000000000000000000e-01  4.00727374658150337083e-01  2.14584449908516994299e-05 4
8.75000000000000000000e-01  5.00000000000000000000e-01  3.82662941247705501446e-01  2.04911173843913552162e-05 4
8.81249999999999977796e-01  5.00000000000000000000e-01  3.64450983989083765469e-01  1.95158900658798373229e-05 4
8.87499999999999955591e-01  5.00000000000000000000e-01  3.46098523938489610607e-01  1.85331390036846954672e-05 4
8.93750000000000044409e-01  5.00000000000000000000e-01  3.27612636318636574195e-01  1.75432430567501462804e-05 4
9.00000000000000022204e-01  5.00000000000000000000e-01  3.09000447791084986715e-01  1.65465838625200589718e-05 4
9.06250000000000000000e-01  5.00000000000000000000e-01  2.90269133708823234841e-01  1.55435456391517234920e-05 4
9.12499999999999977796e-01  5.00000000000000000000e-01  2.71425915349988777781e-01  1.45345150858178229214e-05 4
9.18749999999999955591e-01  5.00000000000000000000e-01  2.52478057133956601543e-01  1.35198812015735470027e-05 4
9.25000000000000044409e-01  5.00000000000000000000e-01  2.33432863820762587226e-01  1.25000351429427336569e-05 4
9.31250000000000022204e-01  5.00000000000000000000e-01  2.14297677694966576256e-01  1.14753700841685457590e-05 4
9.37500000000000000000e-01  5.00000000000000000000e-01  1.95079875735073599019e-01  1.04462810550098872397e-05 4
9.43749999999999977796e-01  5.00000000000000000000e-01  1.75786866769574251501e-01  9.41316478048070948148e-06 4
9.49999999999999955591e-01  5.00000000000000000000e-01  1.56426088620676889684e-01  8.37641955409029748125e-06 4
9.56250000000000044409e-01  5.00000000000000000000e-01  1.37005005236906507449e-01  7.33644506153985354047e-06 4
9.62500000000000022204e-01  5.00000000000000000000e-01  1.17531103815614282326e-01  6.29364222326511679739e-06 4
9.68750000000000000000e-01  5.00000000000000000000e-01  9.80118919164883473094e-02  5.24841307247836397210e-06 4
9.74999999999999977796e-01  5.00000000000000000000e-01  7.84548945672925990280e-02  4.20116055246944064550e-06 4
9.81249999999999955591e-01  5.00000000000000000000e-01  5.88676513627817837859e-02  3.15228840770676033145e-06 4
9.87500000000000044409e-01  5.00000000000000000000e-01  3.92577135580689656758e-02  2.10220099954028238898e-06 4
9.93750000000000022204e-01  5.00000000000000000000e-01  1.96326411574812877137e-02  1.05130314724533047155e-06 4
1.00000000000000000000e+00  5.00000000000000000000e-01  0.00000000000000000000e+00  1.22464679914735320717e-16 4
0.00000000000000000000e+00  5.06249999999999977796e-01  0.00000000000000000000e+00  0.00000000000000000000e+00 4
6.25000000000000034694e-03  5.06249999999999977796e-01  1.96288410804552893030e-02  1.06679907901224835243e-06 4
1.25000000000000006939e-02  5.06249999999999977796e-01  3.92501155012430630320e-02  2.13255466560702267032e-06 4
1.87499999999999993061e-02  5.06249999999999977796e-01  5.88562588715660500727e-02  3.19687189072326294337e-06 4
2.50000000000000013878e-02  5.06249999999999977796e-01  7.84397126341850603470e-02  4.25935618975081808912e-06 4
3.12500000000000000000e-02  5.06249999999999977796e-01  9.79929269793854140769e-02  5.31961345587306233540e-06 4
3.74999999999999986122e-02  5.06249999999999977796e-01  1.17508363755574038456e-01  6.37725019027313155817e-06 4
4.37499999999999972244e-02  5.06249999999999977796e-01  1.36978499375379092484e-01  7.43187365515041165054e-06 4
5.00000000000000027756e-02  5.06249999999999977796e-01  1.56395827716135832341e-01  8.48309202544639262555e-06 4
5.62500000000000013878e-02  5.06249999999999977796e-01  1.75752863013641597023e-01  9.53051453797537639900e-06 4
6.25000000000000000000e-02  5.06249999999999977796e-01  1.95042142748057895085e-01  1.05737516447046431267e-05 4
6.87500000000000055511e-02  5.06249999999999977796e-01  2.14256230520855767141e-01  1.16124151610941250823e-05 4
7.49999999999999972244e-02  5.06249999999999977796e-01  2.33387718921688247509e-01  1.26461184160875372839e-05 4
8.12500000000000027756e-02  5.06249999999999977796e-01  2.52429232384087542940e-01  1.36744764022700415751e-05 4
8.74999999999999944489e-02  5.06249999999999977796e-01  2.71373430028885531673e-01  1.46971059246103763485e-05 4
9.37500000000000000000e-02  5.06249999999999977796e-01  2.90213008494262347803e-01  1.57136257484258301531e-05 4
1.00000000000000005551e-01  5.06249999999999977796e-01  3.08940704751330508238e-01  1.67236567473749708768e-05 4
1.06249999999999997224e-01  5.06249999999999977796e-01  3.27549298904174335245e-01  1.77268220458159930786e-05 4
1.12500000000000002776e-01  5.06249999999999977796e-01  3.46031616973247080349e-01  1.87227471744599860415e-05 4
1.18749999999999994449e-01  5.06249999999999977796e-01  3.64380533661085082020e-01  1.97110602062622319863e-05 4
1.25000000000000000000e-01  5.06249999999999977796e-01  3.82588975099238559618e-01  2.06913919067464036061e-05 4
1.31250000000000005551e-01  5.06249999999999977796e-01  4.00649921575385814521e-01  2.16633758731155090516e-05 4
1.37500000000000011102e-01  5.06249999999999977796e-01  4.18556410239558307484e-01  2.26266486832438218357e-05 4
1.43749999999999988898e-01  5.06249999999999977796e-01  4.36301537788458426714e-01  2.35808500289591549404e-05 4
1.49999999999999994449e-01  5.06249999999999977796e-01  4.53878463126802966787e-01  2.45256228668111475599e-05 4
1.56250000000000000000e-01  5.06249999999999977796e-01  4.71280410004705441196e-01  2.54606135454138460261e-05 4
1.62500000000000005551e-01  5.06249999999999977796e-01  4.88500669630032469115e-01  2.63854719586009700549e-05 4
1.68750000000000011102e-01  5.06249999999999977796e-01  5.05532603254785217750e-01  2.72998516666067558845e-05 4
1.74999999999999988898e-01  5.06249999999999977796e-01  5.22369644734442584166e-01  2.82034100497208228830e-05 4
1.81249999999999994449e-01  5.06249999999999977796e-01  5.39005303059355234119e-01  2.90958084202541655827e-05 4
1.87500000000000000000e-01  5.06249999999999977796e-01  5.55433164857124128666e-01  2.99767121820782023178e-05 4
1.93750000000000005551e-01  5.06249999999999977796e-01  5.71646896865096065810e-01  3.08457909415915665363e-05 4
2.00000000000000011102e-01  5.06249999999999977796e-01  5.87640248371943063610e-01  3.17027186487184309271e-05 4
2.06249999999999988898e-01  5.06249999999999977796e-01  6.03407053627429634801e-01  3.25471737239180214374e-05 4
2.12499999999999994449e-01  5.06249999999999977796e-01  6.18941234219426261731e-01  3.33788391821965291228e-05 4
2.18750000000000000000e-01  5.06249999999999977796e-01  6.34236801417246809365e-01  3.41974027620040033071e-05 4
2.25000000000000005551e-01  5.06249999999999977796e-01  6.49287858480417923168e-01  3.50025570456935497532e-05 4
2.31250000000000011102e-01  5.06249999999999977796e-01  6.64088602931971028198e-01  3.57939995916378705942e-05 4
2.37499999999999988898e-01  5.06249999999999977796e-01  6.78633328795418266921e-01  3.65714330404776077899e-05 4
2.43749999999999994449e-01  5.06249999999999977796e-01  6.92916428794497996080e-01  3.73345652465717492419e-05 4
2.50000000000000000000e-01  5.06249999999999977796e-01  7.06932396514898142570e-01  3.80831093791389463377e-05 4
2.56249999999999977796e-01  5.06249999999999977796e-01  7.20675828527058581763e-01  3.88167840578157452569e-05 4
2.62500000000000011102e-01  5.06249999999999977796e-01  7.34141426469314128944e-01  3.95353134436948749908e-05 4
2.68749999999999988898e-01  5.06249999999999977796e-01  7.47323999090489743402e-01  4.02384273684441851060e-05 4
2.75000000000000022204e-01  5.06249999999999977796e-01  7.60218464251234737894e-01  4.09258614322283165166e-05 4
2.81250000000000000000e-01  5.06249999999999977796e-01  7.72819850883282088994e-01  4.15973571058492197494e-05 4
2.87499999999999977796e-01  5.06249999999999977796e-01  7.85123300905873455768e-01  4.22526618484297955547e-05 4
2.93750000000000011102e-01  5.06249999999999977796e-01  7.97124071098642805744e-01  4.28915292033371642333e-05 4
2.99999999999999988898e-01  5.06249999999999977796e-01  8.08817534930220460865e-01  4.35137188898870874709e-05 4
3.06250000000000022204e-01  5.06249999999999977796e-01  8.20199184341837805867e-01  4.41189969085931110726e-05 4
3.12500000000000000000e-01  5.06249999999999977796e-01  8.31264631485262417421e-01  4.47071356376449458025e-05 4
3.18749999999999977796e-01  5.06249999999999977796e-01  8.42009610414394482625e-01  4.52779139240577777059e-05 4
3.25000000000000011102e-01  5.06249999999999977796e-01  8.52429978729876025589e-01  4.58311171630532143695e-05 4
3.31249999999999988898e-01  5.06249999999999977796e-01  8.62521719176042811483e-01  4.63665374017541154217e-05 4
3.37500000000000022204e-01  5.06249999999999977796e-01  8.72280941189659930757e-01  4.68839734134585128800e-05 4
3.43750000000000000000e-01  5.06249999999999977796e-01  8.81703882399799576675e-01  4.73832307827937171396e-05 4
3.49999999999999977796e-01  5.06249999999999977796e-01  8.90786910078303240113e-01  4.78641219848752186294e-05 4
3.56250000000000011102e-01  5.06249999999999977796e-01  8.99526522540261996852e-01  4.83264664625782103258e-05 4
3.62499999999999988898e-01  5.06249999999999977796e-01  9.07919350493975096938e-01  4.87700907034760433589e-05 4
3.68750000000000022204e-01  5.06249999999999977796e-01  9.15962158339878151914e-01  4.91948283058984969784e-05 4
3.75000000000000000000e-01  5.06249999999999977796e-01  9.23651845417921557591e-01  4.96005200480986729872e-05 4
3.81249999999999977796e-01  5.06249999999999977796e-01  9.30985447202924754073e-01  4.99870139605285146445e-05 4
3.87500000000000011102e-01  5.06249999999999977796e-01  9.37960136447450021357e-01  5.03541653907868536066e-05 4
3.93749999999999988898e-01  5.06249999999999977796e-01  9.44573224271774258831e-01  5.07018370444756172333e-05 4
4.00000000000000022204e-01  5.06249999999999977796e-01  9.50822161200474802456e-01  5.10298990685775777365e-05 4
4.06250000000000000000e-01  5.06249999999999977796e-01  9.56704538145310534603e-01  5.13382290899810911355e-05 4
4.12499999999999977796e-01  5.06249999999999977796e-01  9.62218087333961635821e-01  5.16267122726565830249e-05 4
4.18750000000000011102e-01  5.06249999999999977796e-01  9.67360683184299241510e-01  5.18952413626205810715e-05 4
4.24999999999999988898e-01  5.06249999999999977796e-01  9.72130343123826956564e-01  5.21437167391169964503e-05 4
4.31250000000000022204e-01  5.06249999999999977796e-01  9.76525228353997687414e-01  5.23720464559174203600e-05 4
4.37500000000000000000e-01  5.06249999999999977796e-01  9.80543644559105698200e-01  5.25801462762931492989e-05 4
4.43749999999999977796e-01  5.06249999999999977796e-01  9.84184042559465788180e-01  5.27679397182012621670e-05 4
4.50000000000000011102e-01  5.06249999999999977796e-01  9.87445018908652993872e-01  5.29353580814850843694e-05 4
4.56249999999999988898e-01  5.06249999999999977796e-01  9.90325316434549240974e-01  5.30823404827351907898e-05 4
4.62500000000000022204e-01  5.06249999999999977796e-01  9.92823824724008874298e-01  5.32088338781600000971e-05 4
4.68750000000000000000e-01  5.06249999999999977796e-01  9.94939580550928792668e-01  5.33147930982247331144e-05 4
4.74999999999999977796e-01  5.06249999999999977796e-01  9.96671768247597511525e-01  5.34001808588646653675e-05 4
4.81250000000000011102e-01  5.06249999999999977796e-01  9.98019720019138523170e-01  5.34649677869092343485e-05 4
4.87499999999999988898e-01  5.06249999999999977796e-01  9.98982916200959136788e-01  5.35091324311842697625e-05 4
4.93750000000000022204e-01  5.06249999999999977796e-01  9.99560985459079232029e-01  5.35326612821629410632e-05 4
5.00000000000000000000e-01  5.06249999999999977796e-01  9.99753704933294962132e-01  5.35355487698563337062e-05 4
5.06249999999999977796e-01  5.06249999999999977796e-01  9.99561000323073933771e-01  5.35177972874611995735e-05 4
5.12499999999999955591e-01  5.06249999999999977796e-01  9.98982945916216946713e-01  5.34794171733743439745e-05 4
5.18750000000000044409e-01  5.06249999999999977796e-01  9.98019764560191924296e-01  5.34204267335081084411e-05 4
5.25000000000000022204e-01  5.06249999999999977796e-01  9.96671827576234847790e-01  5.33408522215284008894e-05 4
5.31250000000000000000e-01  5.06249999999999977796e-01  9.94939654616184609992e-01  5.32407278425184316006e-05 4
5.37499999999999977796e-01  5.06249999999999977796e-01  9.92823913462146268039e-01  5.31200957407662599508e-05 4
5.43749999999999955591e-01  5.06249999999999977796e-01  9.90325419769043646667e-01  5.29790059883294972565e-05 4
5.50000000000000044409e-01  5.06249999999999977796e-01  9.87445136750162655304e-01  5.28175165717126304799e-05 4
5.56250000000000022204e-01  5.06249999999999977796e-01  9.84184174805811773368e-01  5.26356933722160746925e-05 4
5.62500000000000000000e-01  5.06249999999999977796e-01  9.80543791095238481681e-01  5.24336101435096679779e-05 4
5.68749999999999977796e-01  5.06249999999999977796e-01  9.76525389051960512887e-01  5.22113484930919469207e-05 4
5.74999999999999955591e-01  5.06249999999999977796e-01  9.72130517842719199528e-01  5.19689978469850544229e-05 4
5.81250000000000044409e-01  5.06249999999999977796e-01  9.67360871770233110567e-01  5.17066554287515245392e-05 4
5.87500000000000022204e-01  5.06249999999999977796e-01  9.62218289620013988994e-01  5.14244262203034097070e-05 4
5.93750000000000000000e-01  5.06249999999999977796e-01  9.56704753951471587037e-01  5.11224229289286569156e-05 4
5.99999999999999977796e-01  5.06249999999999977796e-01  9.50822390333601941137e-01  5.08007659415499190914e-05 4
6.06249999999999955591e-01  5.06249999999999977796e-01  9.44573466525516547421e-01  5.04595833022980500004e-05 4
6.12500000000000044409e-01  5.06249999999999977796e-01  9.37960391602205123540e-01  5.00990106355736486421e-05 4
6.18750000000000022204e-01  5.06249999999999977796e-01  9.30985715025751781049e-01  4.97191911336125613730e-05 4
6.25000000000000000000e-01  5.06249999999999977796e-01  9.23652125662490997016e-01  4.93202754786592478808e-05 4
6.31249999999999977796e-01  5.06249999999999977796e-01  9.15962450746385270506e-01  4.89024217987799048046e-05 4
6.37499999999999955591e-01  5.06249999999999977796e-01  9.07919654789057450905e-01  4.84657956213441210025e-05 4