Titile = 'Poisson'  
VARIABLES = X, Y, U, Error, Rank 
zone N= 1771, E = 3200
DATAPACKING=POINT, ZONETYPE=FETRIANGLE
0.00000000000000000000e+00  2.50000000000000000000e-01  0.00000000000000000000e+00  0.00000000000000000000e+00 4
6.25000000000000034694e-03  2.50000000000000000000e-01  1.38976996430118411585e-02  1.45825643703793861317e-05 4
1.25000000000000006939e-02  2.50000000000000000000e-01  2.77896603927611576812e-02  2.87784413892620827280e-05 4
1.87499999999999993061e-02  2.50000000000000000000e-01  4.16559504074881306601e-02  2.80059318306102866813e-05 4
2.50000000000000013878e-02  2.50000000000000000000e-01  5.55061812603756254969e-02  2.72226254519891686101e-05 4
3.12500000000000000000e-02  2.50000000000000000000e-01  6.93350134237799425874e-02  2.64288242342175516697e-05 4
3.74999999999999986122e-02  2.50000000000000000000e-01  8.31371156196544780492e-02  2.56248341990172878724e-05 4
4.37499999999999972244e-02  2.50000000000000000000e-01  9.69071668748741898991e-02  2.48109653063488533320e-05 4
5.00000000000000027756e-02  2.50000000000000000000e-01  1.10639858572546698201e-01  2.39875313095549991260e-05 4
5.62500000000000013878e-02  2.50000000000000000000e-01  1.24329896498616740419e-01  2.31548496660849423279e-05 4
6.25000000000000000000e-02  2.50000000000000000000e-01  1.37972002882859851036e-01  2.23132413883775360119e-05 4
6.87500000000000055511e-02  2.50000000000000000000e-01  1.51560918433573527109e-01  2.14630309303687205613e-05 4
7.49999999999999972244e-02  2.50000000000000000000e-01  1.65091404365132671250e-01  2.06045460610093655873e-05 4
8.12500000000000027756e-02  2.50000000000000000000e-01  1.78558244417655831437e-01  1.97381177522437667449e-05 4
8.74999999999999944489e-02  2.50000000000000000000e-01  1.91956246867943464141e-01  1.88640800223849325334e-05 4
9.37500000000000000000e-02  2.50000000000000000000e-01  2.05280246531004850752e-01  1.79827698262025048592e-05 4
1.00000000000000005551e-01  2.50000000000000000000e-01  2.18525106751347786282e-01  1.70945269372946295761e-05 4
1.06249999999999997224e-01  2.50000000000000000000e-01  2.31685721383213999447e-01  1.61996937743380531316e-05 4
1.12500000000000002776e-01  2.50000000000000000000e-01  2.44757016759151541097e-01  1.52986153249545786537e-05 4
1.18749999999999994449e-01  2.50000000000000000000e-01  2.57733953645968683066e-01  1.43916389712672732060e-05 4
1.25000000000000000000e-01  2.50000000000000000000e-01  2.70611529187463506485e-01  1.34791143650558886691e-05 4
1.31250000000000005551e-01  2.50000000000000000000e-01  2.83384778833133565978e-01  1.25613933066315297538e-05 4
1.37500000000000011102e-01  2.50000000000000000000e-01  2.96048778252086419727e-01  1.16388295908209649099e-05 4
1.43749999999999988898e-01  2.50000000000000000000e-01  3.08598645231481338858e-01  1.07117788891719634137e-05 4
1.49999999999999994449e-01  2.50000000000000000000e-01  3.21029541558665254541e-01  9.78059856221458190362e-06 4
1.56250000000000000000e-01  2.50000000000000000000e-01  3.33336674886541506346e-01  8.84564766828743742622e-06 4
1.62500000000000005551e-01  2.50000000000000000000e-01  3.45515300580874318293e-01  7.90728658783823590284e-06 4
1.68750000000000011102e-01  2.50000000000000000000e-01  3.57560723549649739361e-01  6.96587709886342665300e-06 4
1.74999999999999988898e-01  2.50000000000000000000e-01  3.69468300053021947438e-01  6.02178213643389526055e-06 4
1.81249999999999994449e-01  2.50000000000000000000e-01  3.81233439493569137291e-01  5.07536565835797759405e-06 4
1.87500000000000000000e-01  2.50000000000000000000e-01  3.92851606186096047324e-01  4.12699254503934298555e-06 4
1.93750000000000005551e-01  2.50000000000000000000e-01  4.04318321106149125566e-01  3.17702838059652492575e-06 4
2.00000000000000011102e-01  2.50000000000000000000e-01  4.15629163616865360265e-01  2.22583941195120260659e-06 4
2.06249999999999988898e-01  2.50000000000000000000e-01  4.26779773173143528453e-01  1.27379233894053811582e-06 4
2.12499999999999994449e-01  2.50000000000000000000e-01  4.37765851002765715716e-01  3.21254221447020427149e-07 4
2.18750000000000000000e-01  2.50000000000000000000e-01  4.48583161763532078936e-01  6.31407786000348636435e-07 4
2.25000000000000005551e-01  2.50000000000000000000e-01  4.59227535176281675966e-01  1.58382635978560060153e-06 4
2.31250000000000011102e-01  2.50000000000000000000e-01  4.69694867632431067861e-01  2.53563433233461310579e-06 4
2.37499999999999988898e-01  2.50000000000000000000e-01  4.79981123776050677687e-01  3.48646477638103746699e-06 4
2.43749999999999994449e-01  2.50000000000000000000e-01  4.90082338059632194316e-01  4.43595108601257948067e-06 4
2.50000000000000000000e-01  2.50000000000000000000e-01  4.99994616272667280477e-01  5.38372733260850111492e-06 4
2.56249999999999977796e-01  2.50000000000000000000e-01  5.09714137043409953876e-01  6.32942793654667212877e-06 4
2.62500000000000011102e-01  2.50000000000000000000e-01  5.19237153311316590454e-01  7.27268857914076249926e-06 4
2.68749999999999988898e-01  2.50000000000000000000e-01  5.28559993772707792381e-01  8.21314524457328332119e-06 4
2.75000000000000022204e-01  2.50000000000000000000e-01  5.37679064294670716606e-01  9.15043581573016240327e-06 4
2.81250000000000000000e-01  2.50000000000000000000e-01  5.46590849302369119478e-01  1.00841985095634356639e-05 4
2.87499999999999977796e-01  2.50000000000000000000e-01  5.55291913132601844261e-01  1.10140737800135113389e-05 4
2.93750000000000011102e-01  2.50000000000000000000e-01  5.63778901360086570627e-01  1.19397026859813237820e-05 4
2.99999999999999988898e-01  2.50000000000000000000e-01  5.72048542088893219315e-01  1.28607287910309509016e-05 4
3.06250000000000022204e-01  2.50000000000000000000e-01  5.80097647215312095526e-01  1.37767968110269478643e-05 4
3.12500000000000000000e-01  2.50000000000000000000e-01  5.87923113656206752786e-01  1.46875534725587897356e-05 4
3.18749999999999977796e-01  2.50000000000000000000e-01  5.95521924544966663184e-01  1.55926479947776641666e-05 4
3.25000000000000011102e-01  2.50000000000000000000e-01  6.02891150395764352510e-01  1.64917310265799699209e-05 4
3.31249999999999988898e-01  2.50000000000000000000e-01  6.10027950231262106051e-01  1.73844564466119066992e-05 4
3.37500000000000022204e-01  2.50000000000000000000e-01  6.16929572679781990097e-01  1.82704795786969853566e-05 4
3.43750000000000000000e-01  2.50000000000000000000e-01  6.23593357033990214333e-01  1.91494593453356287682e-05 4
3.49999999999999977796e-01  2.50000000000000000000e-01  6.30016734278674106484e-01  2.00210563763292270778e-05 4
3.56250000000000011102e-01  2.50000000000000000000e-01  6.36197228079138143997e-01  2.08849351476247946380e-05 4
3.62499999999999988898e-01  2.50000000000000000000e-01  6.42132455737798313322e-01  2.17407621901921643826e-05 4
3.68750000000000022204e-01  2.50000000000000000000e-01  6.47820129111178699688e-01  2.25882077978800666074e-05 4
3.75000000000000000000e-01  2.50000000000000000000e-01  6.53258055492875078230e-01  2.34269453130986349265e-05 4
3.81249999999999977796e-01  2.50000000000000000000e-01  6.58444138459013617037e-01  2.42566511247099825255e-05 4
3.87500000000000011102e-01  2.50000000000000000000e-01  6.63376378675470168567e-01  2.50770057844684757242e-05 4
3.93749999999999988898e-01  2.50000000000000000000e-01  6.68052874670272966995e-01  2.58876925086637399431e-05 4
4.00000000000000022204e-01  2.50000000000000000000e-01  6.72471823564666060236e-01  2.66883992912081424720e-05 4
4.06250000000000000000e-01  2.50000000000000000000e-01  6.76631521770189370280e-01  2.74788169869477627572e-05 4
4.12499999999999977796e-01  2.50000000000000000000e-01  6.80530365643674195475e-01  2.82586412018170918259e-05 4
4.18750000000000011102e-01  2.50000000000000000000e-01  6.84166852106803613509e-01  2.90275710844722922843e-05 4
4.24999999999999988898e-01  2.50000000000000000000e-01  6.87539579224688779391e-01  2.97853103317091694180e-05 4
4.31250000000000022204e-01  2.50000000000000000000e-01  6.90647246746932563788e-01  3.05315667108452259981e-05 4
4.37500000000000000000e-01  2.50000000000000000000e-01  6.93488656608419296035e-01  3.12660526543551142709e-05 4
4.43749999999999977796e-01  2.50000000000000000000e-01  6.96062713391564780174e-01  3.19884849980800467506e-05 4
4.50000000000000011102e-01  2.50000000000000000000e-01  6.98368424748663341184e-01  3.26985850469529992779e-05 4
4.56249999999999988898e-01  2.50000000000000000000e-01  7.00404901783862721132e-01  3.33960792765486402800e-05 4
4.62500000000000022204e-01  2.50000000000000000000e-01  7.02171359396694283461e-01  3.40806985951180863026e-05 4
4.68750000000000000000e-01  2.50000000000000000000e-01  7.03667116583948981656e-01  3.47521792420923958389e-05 4
4.74999999999999977796e-01  2.50000000000000000000e-01  7.04891596702973632915e-01  3.54102621336060963131e-05 4
4.81250000000000011102e-01  2.50000000000000000000e-01  7.05844327693133655188e-01  3.60546938055206211970e-05 4
4.87499999999999988898e-01  2.50000000000000000000e-01  7.06524942258551336138e-01  3.66852257621674837651e-05 4
4.93750000000000022204e-01  2.50000000000000000000e-01  7.06933178009614526793e-01  3.73016146627547229286e-05 4
5.00000000000000000000e-01  2.50000000000000000000e-01  7.07068877563430397970e-01  3.79036231170637449850e-05 4
5.06249999999999977796e-01  2.50000000000000000000e-01  7.06931988604978411850e-01  3.84910192988696664429e-05 4
5.12499999999999955591e-01  2.50000000000000000000e-01  7.06522563908230982754e-01  3.90635760825208677716e-05 4
5.18750000000000044409e-01  2.50000000000000000000e-01  7.05840761313609843519e-01  3.96210733293322903137e-05 4
5.25000000000000022204e-01  2.50000000000000000000e-01  7.04886843669325968698e-01  4.01632957812703139666e-05 4
5.31250000000000000000e-01  2.50000000000000000000e-01  7.03661178728472003208e-01  4.06900347191818667625e-05 4
5.37499999999999977796e-01  2.50000000000000000000e-01  7.02164239008652768526e-01  4.12010866366330219535e-05 4
5.43749999999999955591e-01  2.50000000000000000000e-01  7.00396601608344826495e-01  4.16962547944432770919e-05 4
5.50000000000000044409e-01  2.50000000000000000000e-01  6.98358947985374678424e-01  4.21753483355047364967e-05 4
5.56250000000000022204e-01  2.50000000000000000000e-01  6.96052063694045597408e-01  4.26381825172628126097e-05 4
5.62500000000000000000e-01  2.50000000000000000000e-01  6.93476838082363933324e-01  4.30845787097178245517e-05 4
5.68749999999999977796e-01  2.50000000000000000000e-01  6.90634263948555870982e-01  4.35143650875380316734e-05 4
5.74999999999999955591e-01  2.50000000000000000000e-01  6.87525437159080987648e-01  4.39273759395009122386e-05 4
5.81250000000000044409e-01  2.50000000000000000000e-01  6.84151556226138768402e-01  4.43234517493173996172e-05 4
5.87500000000000022204e-01  2.50000000000000000000e-01  6.80513921844731139998e-01  4.47024401448725683395e-05 4
5.93750000000000000000e-01  2.50000000000000000000e-01  6.76613936392322812274e-01  4.50641948535057679237e-05 4
5.99999999999999977796e-01  2.50000000000000000000e-01  6.72453103387455231044e-01  4.54085765020373344214e-05 4
6.06249999999999955591e-01  2.50000000000000000000e-01  6.68033026910620275629e-01  4.57354521614661280182e-05 4
6.12500000000000044409e-01  2.50000000000000000000e-01  6.63355410985205895535e-01  4.60446960486304845972e-05 4
6.18750000000000022204e-01  2.50000000000000000000e-01  6.58422058921228847694e-01  4.63361889095903478619e-05 4
6.25000000000000000000e-01  2.50000000000000000000e-01  6.53234872620093387496e-01  4.66098180947893681036e-05 4
6.31249999999999977796e-01  2.50000000000000000000e-01  6.47795851840555436674e-01  4.68654784211430808227e-05 4
6.37499999999999955591e-01  2.50000000000000000000e-01  6.42107093428816222414e-01  4.71030711723940953561e-05 4
6.43750000000000044409e-01  2.50000000000000000000e-01  6.36170790509451800077e-01  4.73225048338576925744e-05 4
6.50000000000000022204e-01  2.50000000000000000000e-01  6.29989231640390112688e-01  4.75236946603230236974e-05 4
6.56250000000000000000e-01  2.50000000000000000000e-01  6.23564799929958502034e-01  4.77065633770479280429e-05 4
6.62499999999999977796e-01  2.50000000000000000000e-01  6.16899972119272610449e-01  4.78710400881876552148e-05 4
6.68749999999999955591e-01  2.50000000000000000000e-01  6.09997317625852075729e-01  4.80170618568642737500e-05 4
6.75000000000000044409e-01  2.50000000000000000000e-01  6.02859497554871448521e-01  4.81445719195949806135e-05 4
6.81250000000000022204e-01  2.50000000000000000000e-01  5.95489263671526436461e-01  4.82535214351154095880e-05 4
6.87500000000000000000e-01  2.50000000000000000000e-01  5.87889457341304932925e-01  4.83438683744896735561e-05 4
6.93749999999999977796e-01  2.50000000000000000000e-01  5.80063008434469895569e-01  4.84155776532269044310e-05 4
6.99999999999999955591e-01  2.50000000000000000000e-01  5.72012934195836875162e-01  4.84686218473751040392e-05 4
7.06250000000000044409e-01  2.50000000000000000000e-01  5.63742338082245275643e-01  4.85029805272763070434e-05 4
7.12500000000000022204e-01  2.50000000000000000000e-01  5.55254408565964530098e-01  4.85186404173276741858e-05 4
7.18750000000000000000e-01  2.50000000000000000000e-01  5.46552417905554532851e-01  4.85155953242610848974e-05 4
7.24999999999999977796e-01  2.50000000000000000000e-01  5.37639720883792526784e-01  4.84938466939199841477e-05 4
7.31249999999999955591e-01  2.50000000000000000000e-01  5.28519753515367063379e-01  4.84534025855243299929e-05 4
7.37500000000000044409e-01  2.50000000000000000000e-01  5.19196031720918771413e-01  4.83942789768487813262e-05 4
7.43750000000000022204e-01  2.50000000000000000000e-01  5.09672149973132149192e-01  4.83164982144623778026e-05 4
7.50000000000000000000e-01  2.50000000000000000000e-01  4.99951779909297677751e-01  4.82200907023222491432e-05 4
7.56249999999999977796e-01  2.50000000000000000000e-01  4.90038668917299691241e-01  4.81050934185156542355e-05 4
7.62499999999999955591e-01  2.50000000000000000000e-01  4.79936638690226069492e-01  4.79715506012112768985e-05 4
7.68750000000000044409e-01  2.50000000000000000000e-01  4.69649583752793531310e-01  4.78195139697046300853e-05 4
7.75000000000000022204e-01  2.50000000000000000000e-01  4.59181469960794452767e-01  4.76490418471198218242e-05 4
7.81250000000000000000e-01  2.50000000000000000000e-01  4.48536332971022133620e-01  4.74602002959456648057e-05 4
7.87499999999999977796e-01  2.50000000000000000000e-01  4.37718276686767437944e-01  4.72530617769972849374e-05 4
7.93749999999999955591e-01  2.50000000000000000000e-01  4.26731471674374640557e-01  4.70277064300028690980e-05 4
8.00000000000000044409e-01  2.50000000000000000000e-01  4.15580153556642351020e-01  4.67842208111135526849e-05 4
8.06250000000000022204e-01  2.50000000000000000000e-01  4.04268621378567061253e-01  4.65226992014677875886e-05 4
8.12500000000000000000e-01  2.50000000000000000000e-01  3.92801235951439953187e-01  4.62432421110547942078e-05 4
8.18749999999999977796e-01  2.50000000000000000000e-01  3.81182418170584957906e-01  4.59459573259879405782e-05 4
8.24999999999999955591e-01  2.50000000000000000000e-01  3.69416647311255064157e-01  4.56309596305048970066e-05 4
8.31250000000000044409e-01  2.50000000000000000000e-01  3.57508459302346093267e-01  4.52983702047826675141e-05 4
8.37500000000000022204e-01  2.50000000000000000000e-01  3.45462444976790794549e-01  4.49483174956299968983e-05 4
8.43750000000000000000e-01  2.50000000000000000000e-01  3.33283248302634782512e-01  4.45809362386029306435e-05 4
8.49999999999999977796e-01  2.50000000000000000000e-01  3.20975564591811590720e-01  4.41963682915047506583e-05 4
8.56249999999999955591e-01  2.50000000000000000000e-01  3.08544138690859337526e-01  4.37947617331624350356e-05 4
8.62500000000000044409e-01  2.50000000000000000000e-01  2.95993763151018163260e-01  4.33762714773244795197e-05 4
8.68750000000000022204e-01  2.50000000000000000000e-01  2.83329276381013572816e-01  4.29410588135281656719e-05 4
8.75000000000000000000e-01  2.50000000000000000000e-01  2.70555560781450044061e-01  4.24892916485175575758e-05 4
8.81249999999999977796e-01  2.50000000000000000000e-01  2.57677540863009479910e-01  4.20211439879358827909e-05 4
8.87499999999999955591e-01  2.50000000000000000000e-01  2.44700181347475453908e-01  4.15367963513546545329e-05 4
8.93750000000000044409e-01  2.50000000000000000000e-01  2.31628485253884769390e-01  4.10364355547532255741e-05 4
9.00000000000000022204e-01  2.50000000000000000000e-01  2.18467491970030236459e-01  4.05202543803384607202e-05 4
9.06250000000000000000e-01  2.50000000000000000000e-01  2.05222275309289575729e-01  3.99884518891002738172e-05 4
9.12499999999999977796e-01  2.50000000000000000000e-01  1.91897941554853068702e-01  3.94412330682325507070e-05 4
9.18749999999999955591e-01  2.50000000000000000000e-01  1.78499627490940976360e-01  3.88788089627778443713e-05 4
9.25000000000000044409e-01  2.50000000000000000000e-01  1.65032498422774759339e-01  3.83013962969858123842e-05 4
9.31250000000000022204e-01  2.50000000000000000000e-01  1.51501746184947827523e-01  3.77092176953031099629e-05 4
9.37500000000000000000e-01  2.50000000000000000000e-01  1.37912587139950887360e-01  3.71025015208359398855e-05 4
9.43749999999999977796e-01  2.50000000000000000000e-01  1.24270260167370374949e-01  3.64814815804470615745e-05 4
9.49999999999999955591e-01  2.50000000000000000000e-01  1.10580024643866833833e-01  3.58463973703787575076e-05 4
9.56250000000000044409e-01  2.50000000000000000000e-01  9.68471584159258103153e-02  3.51974936420446082863e-05 4
9.62500000000000022204e-01  2.50000000000000000000e-01  8.30769557648081691248e-02  3.45350206472222476251e-05 4
9.68750000000000000000e-01  2.50000000000000000000e-01  6.92747253657896716605e-02  3.38592337562060308187e-05 4
9.74999999999999977796e-01  2.50000000000000000000e-01  5.54457882414701522245e-02  3.31703934535743094614e-05 4
9.81249999999999955591e-01  2.50000000000000000000e-01  4.15954757103003253116e-02  3.24687653575211898627e-05 4
9.87500000000000044409e-01  2.50000000000000000000e-01  2.77291273314550466844e-02  3.17546199167760556659e-05 4
9.93750000000000022204e-01  2.50000000000000000000e-01  1.38670461381049901772e-02  1.60709405366363938805e-05 4
1.00000000000000000000e+00  2.50000000000000000000e-01  0.00000000000000000000e+00  8.65956056235493162558e-17 4
0.00000000000000000000e+00  2.56249999999999977796e-01  0.00000000000000000000e+00  0.00000000000000000000e+00 4
6.25000000000000034694e-03  2.56249999999999977796e-01  1.41672820483411815440e-02  1.42642215382928622125e-05 4
1.25000000000000006939e-02  2.56249999999999977796e-01  2.83287288294474109973e-02  2.81494336288740099050e-05 4
1.87499999999999993061e-02  2.56249999999999977796e-01  4.24645936044180383195e-02  2.73630516671036216891e-05 4
2.50000000000000013878e-02  2.56249999999999977796e-01  5.65840874702036727983e-02  2.65661207280443179002e-05 4
3.12500000000000000000e-02  2.56249999999999977796e-01  7.06817670931417091351e-02  2.57589480432418582723e-05 4
3.74999999999999986122e-02  2.56249999999999977796e-01  8.47521975493777529609e-02  2.49418447949983912437e-05 4
4.37499999999999972244e-02  2.56249999999999977796e-01  9.87899544201245038977e-02  2.41151259886274171862e-05 4
5.00000000000000027756e-02  2.56249999999999977796e-01  1.12789625882892582953e-01  2.32791103451646108624e-05 4
5.62500000000000013878e-02  2.56249999999999977796e-01  1.26745814797832118126e-01  2.24341201595368300303e-05 4
6.25000000000000000000e-02  2.56249999999999977796e-01  1.40653140788447789111e-01  2.15804811911357585785e-05 4
6.87500000000000055511e-02  2.56249999999999977796e-01  1.54506242315840008894e-01  2.07185225418182739077e-05 4
7.49999999999999972244e-02  2.56249999999999977796e-01  1.68299778745652578449e-01  1.98485765016409576589e-05 4
8.12500000000000027756e-02  2.56249999999999977796e-01  1.82028432407033813334e-01  1.89709784652047908082e-05 4
8.74999999999999944489e-02  2.56249999999999977796e-01  1.95686910642640488067e-01  1.80860667434168398415e-05 4
9.37500000000000000000e-02  2.56249999999999977796e-01  2.09269947849135329321e-01  1.71941825102273071479e-05 4
1.00000000000000005551e-01  2.56249999999999977796e-01  2.22772307507097533374e-01  1.62956695911042892533e-05 4
1.06249999999999997224e-01  2.56249999999999977796e-01  2.36188784199845402956e-01  1.53908743755759580552e-05 4
1.12500000000000002776e-01  2.56249999999999977796e-01  2.49514205620235768324e-01  1.44801456955501173240e-05 4
1.18749999999999994449e-01  2.56249999999999977796e-01  2.62743434564621958227e-01  1.35638346262512143880e-05 4
1.25000000000000000000e-01  2.56249999999999977796e-01  2.75871370913451485762e-01  1.26422944584092533660e-05 4
1.31250000000000005551e-01  2.56249999999999977796e-01  2.88892953597321699988e-01  1.17158804248673753534e-05 4
1.37500000000000011102e-01  2.56249999999999977796e-01  3.01803162548269554577e-01  1.07849497145151573818e-05 4
1.43749999999999988898e-01  2.56249999999999977796e-01  3.14597020634954926965e-01  9.84986118662822818237e-06 4
1.49999999999999994449e-01  2.56249999999999977796e-01  3.27269595581592631639e-01  8.91097538485707829636e-06 4
1.56250000000000000000e-01  2.56249999999999977796e-01  3.39816001869212236386e-01  7.96865417262981878821e-06 4
1.62500000000000005551e-01  2.56249999999999977796e-01  3.52231402619466782422e-01  7.02326094143002066517e-06 4
1.68750000000000011102e-01  2.56249999999999977796e-01  3.64511011458961087239e-01  6.07516009021313863059e-06 4
1.74999999999999988898e-01  2.56249999999999977796e-01  3.76650094364764764787e-01  5.12471716035411972712e-06 4
1.81249999999999994449e-01  2.56249999999999977796e-01  3.88643971489297690436e-01  4.17229852361922226578e-06 4
1.87500000000000000000e-01  2.56249999999999977796e-01  4.00488018964688496926e-01  3.21827142962805012871e-06 4
1.93750000000000005551e-01  2.56249999999999977796e-01  4.12177670685099972747e-01  2.26300360023357072237e-06 4
2.00000000000000011102e-01  2.56249999999999977796e-01  4.23708420067319679880e-01  1.30686335791940777540e-06 4
2.06249999999999988898e-01  2.56249999999999977796e-01  4.35075821787946515062e-01  3.50219296507692234854e-07 4
2.12499999999999994449e-01  2.56249999999999977796e-01  4.46275493497185260505e-01  6.06559822979857443670e-07 4
2.18750000000000000000e-01  2.56249999999999977796e-01  4.57303117508507883660e-01  1.56310503274248446814e-06 4
2.25000000000000005551e-01  2.56249999999999977796e-01  4.68154442462813735748e-01  2.51904769010824480802e-06 4
2.31250000000000011102e-01  2.56249999999999977796e-01  4.78825284967862196961e-01  3.47401916744871641640e-06 4
2.37499999999999988898e-01  2.56249999999999977796e-01  4.89311531210681549542e-01  4.42765136215994559166e-06 4
2.43749999999999994449e-01  2.56249999999999977796e-01  4.99609138543708919400e-01  5.37957665247557059729e-06 4
2.50000000000000000000e-01  2.56249999999999977796e-01  5.09714137043409953876e-01  6.32942793654667212877e-06 4
2.56249999999999977796e-01  2.56249999999999977796e-01  5.19622631040328353258e-01  7.27683920587196553242e-06 4
2.62500000000000011102e-01  2.56249999999999977796e-01  5.29330800621665154004e-01  8.22144496170906791122e-06 4
2.68749999999999988898e-01  2.56249999999999977796e-01  5.38834903102881068726e-01  9.16288140273557871751e-06 4
2.75000000000000022204e-01  2.56249999999999977796e-01  5.48131274471944762716e-01  1.01007851934786785364e-05 4
2.81250000000000000000e-01  2.56249999999999977796e-01  5.57216330800405112988e-01  1.10347950776912284709e-05 4
2.87499999999999977796e-01  2.56249999999999977796e-01  5.66086569626385482934e-01  1.19645506968524273361e-05 4
2.93750000000000011102e-01  2.56249999999999977796e-01  5.74738571303663015044e-01  1.28896939154410361539e-05 4
2.99999999999999988898e-01  2.56249999999999977796e-01  5.83169000321218766736e-01  1.38098677470166464332e-05 4
3.06250000000000022204e-01  2.56249999999999977796e-01  5.91374606587941054059e-01  1.47247176919274025408e-05 4
3.12500000000000000000e-01  2.56249999999999977796e-01  5.99352226686490352492e-01  1.56338909808040327221e-05 4
3.18749999999999977796e-01  2.56249999999999977796e-01  6.07098785092457737811e-01  1.65370371100204138770e-05 4
3.25000000000000011102e-01  2.56249999999999977796e-01  6.14611295360106724139e-01  1.74338079084179753409e-05 4
3.31249999999999988898e-01  2.56249999999999977796e-01  6.21886861273779900650e-01  1.83238575953703630717e-05 4
3.37500000000000022204e-01  2.56249999999999977796e-01  6.28922677964189325017e-01  1.92068431716929666209e-05 4
3.43750000000000000000e-01  2.56249999999999977796e-01  6.35716032990297330585e-01  2.00824239998675935226e-05 4
3.49999999999999977796e-01  2.56249999999999977796e-01  6.42264307384095900488e-01  2.09502628552016290087e-05 4
3.56250000000000011102e-01  2.56249999999999977796e-01  6.48564976661523129309e-01  2.18100248000618890387e-05 4
3.62499999999999988898e-01  2.56249999999999977796e-01  6.54615611794357565856e-01  2.26613786561413732557e-05 4
3.68750000000000022204e-01  2.56249999999999977796e-01  6.60413880147621812355e-01  2.35039961651306583690e-05 4
3.75000000000000000000e-01  2.56249999999999977796e-01  6.65957546378622367023e-01  2.43375523497624257629e-05 4
3.81249999999999977796e-01  2.56249999999999977796e-01  6.71244473298349908497e-01  2.51617260073055959424e-05 4
3.87500000000000011102e-01  2.56249999999999977796e-01  6.76272622695996084019e-01  2.59761992428275689804e-05 4
3.93749999999999988898e-01  2.56249999999999977796e-01  6.81040056123977888269e-01  2.67806583360563621454e-05 4
4.00000000000000022204e-01  2.56249999999999977796e-01  6.85544935646330455548e-01  2.75747927789282698541e-05 4
4.06250000000000000000e-01  2.56249999999999977796e-01  6.89785524545911465921e-01  2.83582967498530180706e-05 4
4.12499999999999977796e-01  2.56249999999999977796e-01  6.93760187995188126742e-01  2.91308679816193460965e-05 4
4.18750000000000011102e-01  2.56249999999999977796e-01  6.97467393685628156419e-01  2.98922087447195394816e-05 4
4.24999999999999988898e-01  2.56249999999999977796e-01  7.00905712418897652860e-01  3.06420254982953110812e-05 4
4.31250000000000022204e-01  2.56249999999999977796e-01  7.04073818657641181673e-01  3.13800292059962515623e-05 4
4.37500000000000000000e-01  2.56249999999999977796e-01  7.06970491036737036517e-01  3.21059352123009844604e-05 4
4.43749999999999977796e-01  2.56249999999999977796e-01  7.09594612833680971065e-01  3.28194638280487893667e-05 4
4.50000000000000011102e-01  2.56249999999999977796e-01  7.11945172399601200475e-01  3.35203399413064317969e-05 4
4.56249999999999988898e-01  2.56249999999999977796e-01  7.14021263549149631800e-01  3.42082932409670803509e-05 4
4.62500000000000022204e-01  2.56249999999999977796e-01  7.15822085909480709809e-01  3.48830586954784749310e-05 4
4.68750000000000000000e-01  2.56249999999999977796e-01  7.17346945229564991742e-01  3.55443758991436098427e-05 4
4.74999999999999977796e-01  2.56249999999999977796e-01  7.18595253646601705988e-01  3.61919904074969878138e-05 4
4.81250000000000011102e-01  2.56249999999999977796e-01  7.19566529914694941183e-01  3.68256517913057024316e-05 4
4.87499999999999988898e-01  2.56249999999999977796e-01  7.20260399587656752196e-01  3.74451164594225005544e-05 4
4.93750000000000022204e-01  2.56249999999999977796e-01  7.20676595165834266155e-01  3.80501452821313534969e-05 4
5.00000000000000000000e-01  2.56249999999999977796e-01  7.20814956197847189756e-01  3.86405050715188380650e-05 4
5.06249999999999977796e-01  2.56249999999999977796e-01  7.20675429343184070774e-01  3.92159679323267340578e-05 4
5.12499999999999955591e-01  2.56249999999999977796e-01  7.20258068391318007073e-01  3.97763127981676234413e-05 4
5.18750000000000044409e-01  2.56249999999999977796e-01  7.19563034243809185320e-01  4.03213226770615662531e-05 4
5.25000000000000022204e-01  2.56249999999999977796e-01  7.18590594848708796860e-01  4.08507883004061156385e-05 4
5.31250000000000000000e-01  2.56249999999999977796e-01  7.17341125100767973422e-01  4.13645046962729523443e-05 4
5.37499999999999977796e-01  2.56249999999999977796e-01  7.15815106693424074713e-01  4.18622747521135707416e-05 4
5.43749999999999955591e-01  2.56249999999999977796e-01  7.14013127936491520664e-01  4.23439058990782157821e-05 4
5.50000000000000044409e-01  2.56249999999999977796e-01  7.11935883527006208027e-01  4.28092125361878572676e-05 4
5.56250000000000022204e-01  2.56249999999999977796e-01  7.09584174281765456271e-01  4.32580157435635825891e-05 4
5.62500000000000000000e-01  2.56249999999999977796e-01  7.06958906830085997974e-01  4.36901418633395266511e-05 4
5.68749999999999977796e-01  2.56249999999999977796e-01  7.04061093262070669674e-01  4.41054247765082507726e-05 4
5.74999999999999955591e-01  2.56249999999999977796e-01  7.00891850740481547888e-01  4.45037039144002832813e-05 4
5.81250000000000044409e-01  2.56249999999999977796e-01  6.97452401067853999805e-01  4.48848265188761530453e-05 4
5.87500000000000022204e-01  2.56249999999999977796e-01  6.93744070218527464355e-01  4.52486446422817323310e-05 4
5.93750000000000000000e-01  2.56249999999999977796e-01  6.89768287823660397606e-01  4.55950190009213329745e-05 4
5.99999999999999977796e-01  2.56249999999999977796e-01  6.85526586623706912782e-01  4.59238154025820577431e-05 4
6.06249999999999955591e-01  2.56249999999999977796e-01  6.81020601875053643859e-01  4.62349072603007726912e-05 4
6.12500000000000044409e-01  2.56249999999999977796e-01  6.76252070720434805828e-01  4.65281748039947373741e-05 4
6.18750000000000022204e-01  2.56249999999999977796e-01  6.71222831519785012588e-01  4.68035045723125264772e-05 4
6.25000000000000000000e-01  2.56249999999999977796e-01  6.65934823139804121794e-01  4.70607911680076540506e-05 4
6.31249999999999977796e-01  2.56249999999999977796e-01  6.60390084209277472560e-01  4.72999345094704537473e-05 4
6.37499999999999955591e-01  2.56249999999999977796e-01  6.54590752329922032082e-01  4.75208430918971913570e-05 4