Titile = 'Poisson'  
VARIABLES = X, Y, U, Error, Rank 
zone N= 966, E = 1600
DATAPACKING=POINT, ZONETYPE=FETRIANGLE
0.00000000000000000000e+00  4.06250000000000000000e-01  0.00000000000000000000e+00  0.00000000000000000000e+00 13
6.25000000000000034694e-03  4.06250000000000000000e-01  1.87935571396183644099e-02  5.28488468178045511792e-06 13
1.25000000000000006939e-02  4.06250000000000000000e-01  3.75797125684758717701e-02  1.04112952080889775708e-05 13
1.87499999999999993061e-02  4.06250000000000000000e-01  5.63452399675672260804e-02  9.39335677344055319793e-06 13
2.50000000000000013878e-02  4.06250000000000000000e-01  7.50890452040728212380e-02  8.37179702335710818062e-06 13
3.12500000000000000000e-02  4.06250000000000000000e-01  9.38039021842645009963e-02  7.34700978373414859135e-06 13
3.74999999999999986122e-02  4.06250000000000000000e-01  1.12482595974528309934e-01  6.31939013506777058637e-06 13
4.37499999999999972244e-02  4.06250000000000000000e-01  1.31117925582832861586e-01  5.28933423427080384727e-06 13
5.00000000000000027756e-02  4.06250000000000000000e-01  1.49702706734896162644e-01  4.25723920913223530249e-06 13
5.62500000000000013878e-02  4.06250000000000000000e-01  1.68229774643772284071e-01  3.22350291770412411552e-06 13
6.25000000000000000000e-02  4.06250000000000000000e-01  1.86691986772139717488e-01  2.18852392119828209616e-06 13
6.87500000000000055511e-02  4.06250000000000000000e-01  2.05082225585752231378e-01  1.15270119718791086427e-06 13
7.49999999999999972244e-02  4.06250000000000000000e-01  2.23393401297484917034e-01  1.16434087149563936237e-07 13
8.12500000000000027756e-02  4.06250000000000000000e-01  2.41618454600533022480e-01  9.19877907124000415706e-07 13
8.74999999999999944489e-02  4.06250000000000000000e-01  2.59750359389921414710e-01  1.95583526457765444206e-06 13
9.37500000000000000000e-02  4.06250000000000000000e-01  2.77782125471165763919e-01  2.99103863532490521493e-06 13
1.00000000000000005551e-01  4.06250000000000000000e-01  2.95706801255241791271e-01  4.02508887847874419208e-06 13
1.06249999999999997224e-01  4.06250000000000000000e-01  3.13517476438396558436e-01  5.05758737429085059034e-06 13
1.12500000000000002776e-01  4.06250000000000000000e-01  3.31207284666278245489e-01  6.08813610197822541181e-06 13
1.18749999999999994449e-01  4.06250000000000000000e-01  3.48769406181137164857e-01  7.11633770233977003272e-06 13
1.25000000000000000000e-01  4.06250000000000000000e-01  3.66197070450755501891e-01  8.14179584757157570607e-06 13
1.31250000000000005551e-01  4.06250000000000000000e-01  3.83483558778863975469e-01  9.16411514673143301479e-06 13
1.37500000000000011102e-01  4.06250000000000000000e-01  4.00622206895090593459e-01  1.01829015343724016418e-05 13
1.43749999999999988898e-01  4.06250000000000000000e-01  4.17606407524387934771e-01  1.11977621983783137694e-05 13
1.49999999999999994449e-01  4.06250000000000000000e-01  4.34429612934065068064e-01  1.22083059301281160458e-05 13
1.56250000000000000000e-01  4.06250000000000000000e-01  4.51085337458253243792e-01  1.32141430846943741528e-05 13
1.62500000000000005551e-01  4.06250000000000000000e-01  4.67567159997994086229e-01  1.42148859906821023458e-05 13
1.68750000000000011102e-01  4.06250000000000000000e-01  4.83868726497047929591e-01  1.52101487475575503083e-05 13
1.74999999999999988898e-01  4.06250000000000000000e-01  4.99983752391124303127e-01  1.61995477530596510007e-05 13
1.81249999999999994449e-01  4.06250000000000000000e-01  5.15906025031131476588e-01  1.71827014211478612538e-05 13
1.87500000000000000000e-01  4.06250000000000000000e-01  5.31629406077635868755e-01  1.81592309638212157097e-05 13
1.93750000000000005551e-01  4.06250000000000000000e-01  5.47147833868120270218e-01  1.91287597258726904670e-05 13
2.00000000000000011102e-01  4.06250000000000000000e-01  5.62455325753270063416e-01  2.00909139302929418136e-05 13
2.06249999999999988898e-01  4.06250000000000000000e-01  5.77545980403414316307e-01  2.10453228058904429076e-05 13
2.12499999999999994449e-01  4.06250000000000000000e-01  5.92413980084122493430e-01  2.19916182091495215900e-05 13
2.18750000000000000000e-01  4.06250000000000000000e-01  6.07053592898333715944e-01  2.29294354838760483517e-05 13
2.25000000000000005551e-01  4.06250000000000000000e-01  6.21459174996743746178e-01  2.38584129700347702396e-05 13
2.31250000000000011102e-01  4.06250000000000000000e-01  6.35625172753131573167e-01  2.47781926286938514181e-05 13
2.37499999999999988898e-01  4.06250000000000000000e-01  6.49546124905686528272e-01  2.56884198803764007835e-05 13
2.43749999999999994449e-01  4.06250000000000000000e-01  6.63216664662521271367e-01  2.65887436506906382760e-05 13
2.50000000000000000000e-01  4.06250000000000000000e-01  6.76631521770192256859e-01  2.74788169840611828931e-05 13
2.56249999999999977796e-01  4.06250000000000000000e-01  6.89785524545914130456e-01  2.83582967471884828115e-05 13
2.62500000000000011102e-01  4.06250000000000000000e-01  7.02673601871246500394e-01  2.92268438566445354354e-05 13
2.68749999999999988898e-01  4.06250000000000000000e-01  7.15290785147173258096e-01  3.00841233418225328933e-05 13
2.75000000000000022204e-01  4.06250000000000000000e-01  7.27632210209101404352e-01  3.09298049667727781298e-05 13
2.81250000000000000000e-01  4.06250000000000000000e-01  7.39693119202962989789e-01  3.17635624815792994013e-05 13
2.87499999999999977796e-01  4.06250000000000000000e-01  7.51468862418595673347e-01  3.25850746122346990319e-05 13
2.93750000000000011102e-01  4.06250000000000000000e-01  7.62954900083056664073e-01  3.33940244220398696484e-05 13
2.99999999999999988898e-01  4.06250000000000000000e-01  7.74146804109782094017e-01  3.41901004426992116692e-05 13
3.06250000000000022204e-01  4.06250000000000000000e-01  7.85040259807203710807e-01  3.49729952902055885033e-05 13
3.12500000000000000000e-01  4.06250000000000000000e-01  7.95631067540425118700e-01  3.57424075021484100034e-05 13
3.18749999999999977796e-01  4.06250000000000000000e-01  8.05915144351663115252e-01  3.64980402522974145541e-05 13
3.25000000000000011102e-01  4.06250000000000000000e-01  8.15888525533198238904e-01  3.72396025725141299745e-05 13
3.31249999999999988898e-01  4.06250000000000000000e-01  8.25547366157418194277e-01  3.79668078909212169947e-05 13
3.37500000000000022204e-01  4.06250000000000000000e-01  8.34887942556518769521e-01  3.86793767354065565200e-05 13
3.43750000000000000000e-01  4.06250000000000000000e-01  8.43906653761333891417e-01  3.93770335550547301295e-05 13
3.49999999999999977796e-01  4.06250000000000000000e-01  8.52600022886409791845e-01  4.00595099954159650224e-05 13
3.56250000000000011102e-01  4.06250000000000000000e-01  8.60964698472770462168e-01  4.07265426413117026527e-05 13
3.62499999999999988898e-01  4.06250000000000000000e-01  8.68997455778510397018e-01  4.13778745765869260254e-05 13
3.68750000000000022204e-01  4.06250000000000000000e-01  8.76695198023203059456e-01  4.20132542756634919101e-05 13
3.75000000000000000000e-01  4.06250000000000000000e-01  8.84054957580096889558e-01  4.26324373701270076253e-05 13
3.81249999999999977796e-01  4.06250000000000000000e-01  8.91073897122116265201e-01  4.32351848201895094803e-05 13
3.87500000000000011102e-01  4.06250000000000000000e-01  8.97749310714628045993e-01  4.38212640835322631006e-05 13
3.93749999999999988898e-01  4.06250000000000000000e-01  9.04078624858265511577e-01  4.43904495696090251045e-05 13
4.00000000000000022204e-01  4.06250000000000000000e-01  9.10059399482279207660e-01  4.49425215101051378497e-05 13
4.06250000000000000000e-01  4.06250000000000000000e-01  9.15689328883816600069e-01  4.54772674561843004426e-05 13
4.12499999999999977796e-01  4.06250000000000000000e-01  9.20966242618252550756e-01  4.59944809232393225784e-05 13
4.18750000000000011102e-01  4.06250000000000000000e-01  9.25888106334606275638e-01  4.64939628013194550249e-05 13
4.24999999999999988898e-01  4.06250000000000000000e-01  9.30453022561201326113e-01  4.69755200525057148297e-05 13
4.31250000000000022204e-01  4.06250000000000000000e-01  9.34659231435156279133e-01  4.74389678063458219981e-05 13
4.37500000000000000000e-01  4.06250000000000000000e-01  9.38505111383838297456e-01  4.78841264377471986791e-05 13
4.43749999999999977796e-01  4.06250000000000000000e-01  9.41989179746518634495e-01  4.83108251284614098608e-05 13
4.50000000000000011102e-01  4.06250000000000000000e-01  9.45110093348592861240e-01  4.87188993065768016777e-05 13
4.56249999999999988898e-01  4.06250000000000000000e-01  9.47866649019471041449e-01  4.91081906385248956326e-05 13
4.62500000000000022204e-01  4.06250000000000000000e-01  9.50257784052816356635e-01  4.94785506974793065638e-05 13
4.68750000000000000000e-01  4.06250000000000000000e-01  9.52282576621941267980e-01  4.98298353173165509133e-05 13
4.74999999999999977796e-01  4.06250000000000000000e-01  9.53940246130156266346e-01  5.01619096817673693067e-05 13
4.81250000000000011102e-01  4.06250000000000000000e-01  9.55230153514127655612e-01  5.04746459528693236507e-05 13
4.87499999999999988898e-01  4.06250000000000000000e-01  9.56151801490784603033e-01  5.07679227843560454403e-05 13
4.93750000000000022204e-01  4.06250000000000000000e-01  9.56704834746251564503e-01  5.10416281489511902691e-05 13
5.00000000000000000000e-01  4.06250000000000000000e-01  9.56889040076590480233e-01  5.12956556184551715205e-05 13
5.06249999999999977796e-01  4.06250000000000000000e-01  9.56704346466809463223e-01  5.15299075910524706501e-05 13
5.12499999999999955591e-01  4.06250000000000000000e-01  9.56150825119324365708e-01  5.17442942445933695694e-05 13
5.18750000000000044409e-01  4.06250000000000000000e-01  9.55228689427966681791e-01  5.19387321138431445888e-05 13
5.25000000000000022204e-01  4.06250000000000000000e-01  9.53938294893291960364e-01  5.21131465460733522832e-05 13
5.31250000000000000000e-01  4.06250000000000000000e-01  9.52280138986558721825e-01  5.22674706999737281876e-05 13
5.37499999999999977796e-01  4.06250000000000000000e-01  9.50254860958888003530e-01  5.24016446258324108953e-05 13
5.43749999999999955591e-01  4.06250000000000000000e-01  9.47863241593708050203e-01  5.25156164015161408543e-05 13
5.50000000000000044409e-01  4.06250000000000000000e-01  9.45106202904873571313e-01  5.26093430257557059804e-05 13
5.56250000000000022204e-01  4.06250000000000000000e-01  9.41984807784517097495e-01  5.26827871299984096254e-05 13
5.62500000000000000000e-01  4.06250000000000000000e-01  9.38500259588822438594e-01  5.27359214536060605383e-05 13
5.68749999999999977796e-01  4.06250000000000000000e-01  9.34653901678166865175e-01  5.27687247957597804771e-05 13
5.74999999999999955591e-01  4.06250000000000000000e-01  9.30447216896188145085e-01  5.27811850657977643664e-05 13
5.81250000000000044409e-01  4.06250000000000000000e-01  9.25881827000638146785e-01  5.27732967694483079413e-05 13
5.87500000000000022204e-01  4.06250000000000000000e-01  9.20959492035286486633e-01  5.27450638893034451371e-05 13
5.93750000000000000000e-01  4.06250000000000000000e-01  9.15682109654974429880e-01  5.26964962983544893405e-05 13
5.99999999999999977796e-01  4.06250000000000000000e-01  9.10051714390171628821e-01  5.26276136176839770542e-05 13
6.06249999999999955591e-01  4.06250000000000000000e-01  9.04070476866256966808e-01  5.25384415782648162008e-05 13
6.12500000000000044409e-01  4.06250000000000000000e-01  8.97740702963464087816e-01  5.24290152473794179855e-05 13
6.18750000000000022204e-01  4.06250000000000000000e-01  8.91064832930359762564e-01  5.22993765768031693142e-05 13
6.25000000000000000000e-01  4.06250000000000000000e-01  8.84045440442129959457e-01  5.21495753370571080154e-05 13
6.31249999999999977796e-01  4.06250000000000000000e-01  8.76685231608245740809e-01  5.19796692329821397038e-05 13
6.37499999999999955591e-01  4.06250000000000000000e-01  8.68987043928538760440e-01  5.17897245484455481801e-05 13
6.43750000000000044409e-01  4.06250000000000000000e-01  8.60953845202020673355e-01  5.15798133909894929161e-05 13
6.50000000000000022204e-01  4.06250000000000000000e-01  8.52588732378829705638e-01  5.13500175756131937987e-05 13
6.56250000000000000000e-01  4.06250000000000000000e-01  8.43894930369633033962e-01  5.11004252560232075098e-05 13
6.62499999999999977796e-01  4.06250000000000000000e-01  8.34875790800569728134e-01  5.08311326846699884641e-05 13
6.68749999999999955591e-01  4.06250000000000000000e-01  8.25534790721407119030e-01  5.05422439022185088220e-05 13
6.75000000000000044409e-01  4.06250000000000000000e-01  8.15875531265785269852e-01  5.02338699855942039108e-05 13
6.81250000000000022204e-01  4.06250000000000000000e-01  8.05901736261826262542e-01  4.99061300892611470204e-05 13
6.87500000000000000000e-01  4.06250000000000000000e-01  7.95617250797776787152e-01  4.95591501507020026907e-05 13
6.93749999999999977796e-01  4.06250000000000000000e-01  7.85026039738146774738e-01  4.91930643471416573220e-05 13
6.99999999999999955591e-01  4.06250000000000000000e-01  7.74132186196128446731e-01  4.88080140963464970127e-05 13
7.06250000000000044409e-01  4.06250000000000000000e-01  7.62939889960987827067e-01  4.84041464908768759301e-05 13
7.12500000000000022204e-01  4.06250000000000000000e-01  7.51453465874021842019e-01  4.79816191860660268276e-05 13
7.18750000000000000000e-01  4.06250000000000000000e-01  7.39677342172009422150e-01  4.75405934352579606639e-05 13
7.24999999999999977796e-01  4.06250000000000000000e-01  7.27616058773983720442e-01  4.70812400844566880664e-05 13
7.31249999999999955591e-01  4.06250000000000000000e-01  7.15274265534361020080e-01  4.66037361543936157204e-05 13
7.37500000000000044409e-01  4.06250000000000000000e-01  7.02656720450036242909e-01  4.61082650667909987874e-05 13
7.43750000000000022204e-01  4.06250000000000000000e-01  6.89768287823841919071e-01  4.55950188196219130532e-05 13
7.50000000000000000000e-01  4.06250000000000000000e-01  6.76613936392213233262e-01  4.50641949631958027567e-05 13
7.56249999999999977796e-01  4.06250000000000000000e-01  6.63198737408524308101e-01  4.45159976476539043233e-05 13
7.62499999999999955591e-01  4.06250000000000000000e-01  6.49527862686723467256e-01  4.39506388437704842431e-05 13
7.68750000000000044409e-01  4.06250000000000000000e-01  6.35606582609863024480e-01  4.33683358970204935190e-05 13
7.75000000000000022204e-01  4.06250000000000000000e-01  6.21440264095747374462e-01  4.27693139665175081632e-05 13
7.81250000000000000000e-01  4.06250000000000000000e-01  6.07034368530325330049e-01  4.21538034922619431200e-05 13
7.87499999999999977796e-01  4.06250000000000000000e-01  5.92394449660654465184e-01  4.15220416773998124427e-05 13
7.93749999999999955591e-01  4.06250000000000000000e-01  5.77526151453367275757e-01  4.08742728530420151856e-05 13
8.00000000000000044409e-01  4.06250000000000000000e-01  5.62435205921614889135e-01  4.02107455855782447429e-05 13
8.06250000000000022204e-01  4.06250000000000000000e-01  5.47127430910848255863e-01  3.95317169978870452951e-05 13
8.12500000000000000000e-01  4.06250000000000000000e-01  5.31608727860883756300e-01  3.88374477159336706222e-05 13
8.18749999999999977796e-01  4.06250000000000000000e-01  5.15885079526592016386e-01  3.81282059607190859651e-05 13
8.24999999999999955591e-01  4.06250000000000000000e-01  4.99962547673724277963e-01  3.74042651531958370015e-05 13
8.31250000000000044409e-01  4.06250000000000000000e-01  4.83847270741597890176e-01  3.66659041975969657301e-05 13
8.37500000000000022204e-01  4.06250000000000000000e-01  4.67545461476060464356e-01  3.59134079242484638428e-05 13
8.43750000000000000000e-01  4.06250000000000000000e-01  4.51063404535161027731e-01  3.51470661771324799361e-05 13
8.49999999999999977796e-01  4.06250000000000000000e-01  4.34407454065292464307e-01  3.43671747028428953286e-05 13
8.56249999999999955591e-01  4.06250000000000000000e-01  4.17584031252525411659e-01  3.35740340612900034500e-05 13
8.62500000000000044409e-01  4.06250000000000000000e-01  4.00599621846808584547e-01  3.27679498162147808671e-05 13
8.68750000000000022204e-01  4.06250000000000000000e-01  3.83460773660849740807e-01  3.19492331611326285667e-05 13
8.75000000000000000000e-01  4.06250000000000000000e-01  3.66174094047326037504e-01  3.11181992771469850823e-05 13
8.81249999999999977796e-01  4.06250000000000000000e-01  3.48746247350155746947e-01  3.02751686837576805544e-05 13
8.87499999999999955591e-01  4.06250000000000000000e-01  3.31183952335601772266e-01  2.94204667787845153271e-05 13
8.93750000000000044409e-01  4.06250000000000000000e-01  3.13493979603538031053e-01  2.85544222326516994315e-05 13
9.00000000000000022204e-01  4.06250000000000000000e-01  2.95683148974402731923e-01  2.76773697176491140226e-05 13
9.06250000000000000000e-01  4.06250000000000000000e-01  2.77758326862725835049e-01  2.67896470753092863504e-05 13
9.12499999999999977796e-01  4.06250000000000000000e-01  2.59726423628737324023e-01  2.58915964490014083310e-05 13
9.18749999999999955591e-01  4.06250000000000000000e-01  2.41594390914432854967e-01  2.49835640074858034154e-05 13
9.25000000000000044409e-01  4.06250000000000000000e-01  2.23369218963328786121e-01  2.40659000691201274691e-05 13
9.31250000000000022204e-01  4.06250000000000000000e-01  2.05057933926316909856e-01  2.31389582381058556138e-05 13
9.37500000000000000000e-01  4.06250000000000000000e-01  1.86667595152323034791e-01  2.22030958958174817752e-05 13
9.43749999999999977796e-01  4.06250000000000000000e-01  1.68205292467104944309e-01  2.12586737498576816563e-05 13
9.49999999999999955591e-01  4.06250000000000000000e-01  1.49678143439556238237e-01  2.03060561309031939459e-05 13
9.56250000000000044409e-01  4.06250000000000000000e-01  1.31093290638625736833e-01  1.93456099728817054739e-05 13
9.62500000000000022204e-01  4.06250000000000000000e-01  1.12457898878503437246e-01  1.83777058897077738564e-05 13
9.68750000000000000000e-01  4.06250000000000000000e-01  9.37791524577571145027e-02  1.74027167238605118271e-05 13
9.74999999999999977796e-01  4.06250000000000000000e-01  7.50642523885257095806e-02  1.64210185238655714812e-05 13
9.81249999999999955591e-01  4.06250000000000000000e-01  5.63204136210722489109e-02  1.54329897219737666170e-05 13
9.87500000000000044409e-01  4.06250000000000000000e-01  3.75548622620846261899e-02  1.44390111830594580766e-05 13
9.93750000000000022204e-01  4.06250000000000000000e-01  1.87809731239942274972e-02  7.29913094258197170383e-06 13
1.00000000000000000000e+00  4.06250000000000000000e-01  0.00000000000000000000e+00  1.17191391912944316055e-16 13
0.00000000000000000000e+00  4.12499999999999977796e-01  0.00000000000000000000e+00  0.00000000000000000000e+00 13
6.25000000000000034694e-03  4.12499999999999977796e-01  1.89014207459228464336e-02  4.87062627064355213591e-06 13
1.25000000000000006939e-02  4.12499999999999977796e-01  3.77954083529159490240e-02  9.59309339493980006708e-06 13
1.87499999999999993061e-02  4.12499999999999977796e-01  5.66690833835826884846e-02  8.57013526130850911144e-06 13
2.50000000000000013878e-02  4.12499999999999977796e-01  7.55209114038587064899e-02  7.54387317634941378941e-06 13
3.12500000000000000000e-02  4.12499999999999977796e-01  9.43436246751857415793e-02  6.51470278816013159684e-06 13
3.74999999999999986122e-02  4.12499999999999977796e-01  1.13129966683284247098e-01  5.48302085479068779250e-06 13
4.37499999999999972244e-02  4.12499999999999977796e-01  1.31872694935701473273e-01  4.44922511502743311951e-06 13
5.00000000000000027756e-02  4.12499999999999977796e-01  1.50564583753903302732e-01  3.41371410808588571228e-06 13
5.62500000000000013878e-02  4.12499999999999977796e-01  1.69198427058950356949e-01  2.37688705961858204319e-06 13
6.25000000000000000000e-02  4.12499999999999977796e-01  1.87767041149511204612e-01  1.33914366029497244881e-06 13
6.87500000000000055511e-02  4.12499999999999977796e-01  2.06263267471426675614e-01  3.00884022336189715929e-07 13
7.49999999999999972244e-02  4.12499999999999977796e-01  2.24679975377295809702e-01  7.37491647334609368158e-07 13
8.12500000000000027756e-02  4.12499999999999977796e-01  2.43010064875717440858e-01  1.77558296068913712418e-06 13
8.74999999999999944489e-02  4.12499999999999977796e-01  2.61246469368176248427e-01  2.81298979820654437844e-06 13
9.37500000000000000000e-02  4.12499999999999977796e-01  2.79382158373689015729e-01  3.84931212521477661426e-06 13
1.00000000000000005551e-01  4.12499999999999977796e-01  2.97410140238808851088e-01  4.88415052651847148013e-06 13
1.06249999999999997224e-01  4.12499999999999977796e-01  3.15323464833464295332e-01  5.91710593633720804974e-06 13
1.12500000000000002776e-01  4.12499999999999977796e-01  3.33115226229940719627e-01  6.94778021831377046169e-06 13
1.18749999999999994449e-01  4.12499999999999977796e-01  3.50778565365559846789e-01  7.97577600614163273463e-06 13
1.25000000000000000000e-01  4.12499999999999977796e-01  3.68306672686878000533e-01  9.00069695780603140634e-06 13
1.31250000000000005551e-01  4.12499999999999977796e-01  3.85692790774800620124e-01  1.00221480061613021917e-05 13
1.37500000000000011102e-01  4.12499999999999977796e-01  4.02930216949933306392e-01  1.10397352739988185988e-05 13
1.43749999999999988898e-01  4.12499999999999977796e-01  4.20012305856291290329e-01  1.20530665267959413711e-05 13
1.49999999999999994449e-01  4.12499999999999977796e-01  4.36932472023425388929e-01  1.30617511095443283864e-05 13
1.56250000000000000000e-01  4.12499999999999977796e-01  4.53684192405180597429e-01  1.40654001626883129461e-05 13
1.62500000000000005551e-01  4.12499999999999977796e-01  4.70261008894503451661e-01  1.50636267229886655628e-05 13
1.68750000000000011102e-01  4.12499999999999977796e-01  4.86656530813119825307e-01  1.60560459185332682353e-05 13
1.74999999999999988898e-01  4.12499999999999977796e-01  5.02864437375131534402e-01  1.70422752483467832008e-05 13
1.81249999999999994449e-01  4.12499999999999977796e-01  5.18878480124018492958e-01  1.80219345110588236025e-05 13
1.87500000000000000000e-01  4.12499999999999977796e-01  5.34692485341669132559e-01  1.89946458200029866248e-05 13
1.93750000000000005551e-01  4.12499999999999977796e-01  5.50300356427751546917e-01  1.99600344636952087285e-05 13
2.00000000000000011102e-01  4.12499999999999977796e-01  5.65696076251019697168e-01  2.09177280993122494124e-05 13
2.06249999999999988898e-01  4.12499999999999977796e-01  5.80873709468355259311e-01  2.18673575731465064109e-05 13
2.12499999999999994449e-01  4.12499999999999977796e-01  5.95827404813333072475e-01  2.28085566854607790788e-05 13
2.18750000000000000000e-01  4.12499999999999977796e-01  6.10551397351587032958e-01  2.37409627402707101851e-05 13
2.25000000000000005551e-01  4.12499999999999977796e-01  6.25040010703812876081e-01  2.46642161737531395715e-05 13
2.31250000000000011102e-01  4.12499999999999977796e-01  6.39287659233704674833e-01  2.55779611096906833723e-05 13
2.37499999999999988898e-01  4.12499999999999977796e-01  6.53288850201656612349e-01  2.64818451628512363527e-05 13
2.43749999999999994449e-01  4.12499999999999977796e-01  6.67038185881793421750e-01  2.73755201012360060986e-05 13
2.50000000000000000000e-01  4.12499999999999977796e-01  6.80530365643677082055e-01  2.82586411989305119619e-05 13
2.56249999999999977796e-01  4.12499999999999977796e-01  6.93760187995191013322e-01  2.91308679787327662325e-05 13
2.62500000000000011102e-01  4.12499999999999977796e-01  7.06722552587838004357e-01  2.99918643204000190394e-05 13
2.68749999999999988898e-01  4.12499999999999977796e-01  7.19412462183346645972e-01  3.08412982641392829919e-05 13
2.75000000000000022204e-01  4.12499999999999977796e-01  7.31825024580094019022e-01  3.16788422478619935418e-05 13
2.81250000000000000000e-01  4.12499999999999977796e-01  7.43955454498980151001e-01  3.25041733939546162446e-05 13
2.87499999999999977796e-01  4.12499999999999977796e-01  7.55799075428215560990e-01  3.33169736642657809966e-05 13
2.93750000000000011102e-01  4.12499999999999977796e-01  7.67351321426766208589e-01  3.41169294212351204010e-05 13
2.99999999999999988898e-01  4.12499999999999977796e-01  7.78607738883408950770e-01  3.49037327501688920961e-05 13
3.06250000000000022204e-01  4.12499999999999977796e-01  7.89563988235536529103e-01  3.56770797252936588961e-05 13
3.12500000000000000000e-01  4.12499999999999977796e-01  8.00215845639926537380e-01  3.64366727421128189235e-05 13
3.18749999999999977796e-01  4.12499999999999977796e-01  8.10559204603091387753e-01  3.71822186537862364730e-05 13
3.25000000000000011102e-01  4.12499999999999977796e-01  8.20590077563394415527e-01  3.79134299000050134509e-05 13
3.31249999999999988898e-01  4.12499999999999977796e-01  8.30304597427572343982e-01  3.86300253754079392365e-05 13
3.37500000000000022204e-01  4.12499999999999977796e-01  8.39699019064518492605e-01  3.93317275935167742773e-05 13
3.43750000000000000000e-01  4.12499999999999977796e-01  8.48769720745033873222e-01  4.00182668616189118893e-05 13
3.49999999999999977796e-01  4.12499999999999977796e-01  8.57513205540799239301e-01  4.06893786586426386975e-05 13
3.56250000000000011102e-01  4.12499999999999977796e-01  8.65926102672771369484e-01  4.13448034728425284356e-05 13
3.62499999999999988898e-01  4.12499999999999977796e-01  8.74005168808309695905e-01  4.19842892745991846937e-05 13
3.68750000000000022204e-01  4.12499999999999977796e-01  8.81747289313626669838e-01  4.26075895304522944684e-05 13
3.75000000000000000000e-01  4.12499999999999977796e-01  8.89149479454518276711e-01  4.32144633173425773975e-05 13
3.81249999999999977796e-01  4.12499999999999977796e-01  8.96208885545006217477e-01  4.38046774456912757501e-05 13
3.87500000000000011102e-01  4.12499999999999977796e-01  9.02922786050092573973e-01  4.43780039451890928603e-05 13
3.93749999999999988898e-01  4.12499999999999977796e-01  9.09288592633355929884e-01  4.49342217587744841012e-05 13
4.00000000000000022204e-01  4.12499999999999977796e-01  9.15303851154694703141e-01  4.54731169393651768473e-05 13
4.06250000000000000000e-01  4.12499999999999977796e-01  9.20966242618253105867e-01  4.59944809226842110661e-05 13
4.12499999999999977796e-01  4.12499999999999977796e-01  9.26273584063752264406e-01  4.64981132938246943809e-05 13
4.18750000000000011102e-01  4.12499999999999977796e-01  9.31223829409945524915e-01  4.69838199828043201478e-05 13
4.24999999999999988898e-01  4.12499999999999977796e-01  9.35815070243417812534e-01  4.74514133421699568771e-05 13
4.31250000000000022204e-01  4.12499999999999977796e-01  9.40045536553490435061e-01  4.79007130450570528524e-05 13
4.37500000000000000000e-01  4.12499999999999977796e-01  9.43913597414099192484e-01  4.83315466487388434302e-05 13
4.43749999999999977796e-01  4.12499999999999977796e-01  9.47417761615155784582e-01  4.87437470533258476735e-05 13
4.50000000000000011102e-01  4.12499999999999977796e-01  9.50556678234296459351e-01  4.91371557074238296536e-05 13
4.56249999999999988898e-01  4.12499999999999977796e-01  9.53329137158418826736e-01  4.95116219377811361824e-05 13
4.62500000000000022204e-01  4.12499999999999977796e-01  9.55734069554011633763e-01  4.98669992006206541646e-05 13
4.68750000000000000000e-01  4.12499999999999977796e-01  9.57770548271409283281e-01  5.02031529382440666609e-05 13
4.74999999999999977796e-01  4.12499999999999977796e-01  9.59437788211086495238e-01  5.05199517707444201164e-05 13
4.81250000000000011102e-01  4.12499999999999977796e-01  9.60735146619672408796e-01  5.08172742028634161215e-05 13
4.87499999999999988898e-01  4.12499999999999977796e-01  9.61662123340195851284e-01  5.10950062192483400736e-05 13
4.93750000000000022204e-01  4.12499999999999977796e-01  9.62218361006842104466e-01  5.13530393921879380059e-05 13
5.00000000000000000000e-01  4.12499999999999977796e-01  9.62403645178425470874e-01  5.15912752218072867549e-05 13
5.06249999999999977796e-01  4.12499999999999977796e-01  9.62217904424247927331e-01  5.18096219863650730986e-05 13
5.12499999999999955591e-01  4.12499999999999977796e-01  9.61661210351770656679e-01  5.20079946444429452868e-05 13
5.18750000000000044409e-01  4.12499999999999977796e-01  9.60733777576349368132e-01  5.21863175259040801279e-05 13
5.25000000000000022204e-01  4.12499999999999977796e-01  9.59435963641226519094e-01  5.23445216307205640760e-05 13
5.31250000000000000000e-01  4.12499999999999977796e-01  9.57768268878869344363e-01  5.24825454782940070686e-05 13
5.37499999999999977796e-01  4.12499999999999977796e-01  9.55731336216300353392e-01  5.26003369119010244503e-05 13
5.43749999999999955591e-01  4.12499999999999977796e-01  9.53325950930766885527e-01  5.26978495897223453426e-05 13
5.50000000000000044409e-01  4.12499999999999977796e-01  9.50553040343914967814e-01  5.27750460888043448904e-05 13
5.56250000000000022204e-01  4.12499999999999977796e-01  9.47413673464756134202e-01  5.28318974529762286352e-05 13
5.62500000000000000000e-01  4.12499999999999977796e-01  9.43909060580403913576e-01  5.28683803440177513266e-05 13
5.68749999999999977796e-01  4.12499999999999977796e-01  9.40040552784798366659e-01  5.28844817371254549698e-05 13
5.74999999999999955591e-01  4.12499999999999977796e-01  9.35809641461326946477e-01  5.28801954331470369652e-05 13
5.81250000000000044409e-01  4.12499999999999977796e-01  9.31217957707379473398e-01  5.28555225488558377833e-05 13
5.87500000000000022204e-01  4.12499999999999977796e-01  9.26267271704149464107e-01  5.28104728966249936661e-05 13
5.93750000000000000000e-01  4.12499999999999977796e-01  9.20959492035588578318e-01  5.27450635872117601366e-05 13
5.99999999999999977796e-01  4.12499999999999977796e-01  9.15296664951375404939e-01  5.26593202587744002585e-05 13
6.06249999999999955591e-01  4.12499999999999977796e-01  9.09280973578979079264e-01  5.25532761357361266619e-05 13
6.12500000000000044409e-01  4.12499999999999977796e-01  9.02914737083194585132e-01  5.24269708430669112431e-05 13
6.18750000000000022204e-01  4.12499999999999977796e-01  8.96200409767824224261e-01  5.22804546277955139999e-05 13
6.25000000000000000000e-01  4.12499999999999977796e-01  8.89140580134538671686e-01  5.21137832969476022527e-05 13