Titile = 'Poisson'  
VARIABLES = X, Y, U, Error, Rank 
zone N= 966, E = 1600
DATAPACKING=POINT, ZONETYPE=FETRIANGLE
0.00000000000000000000e+00  6.56250000000000000000e-01  0.00000000000000000000e+00  0.00000000000000000000e+00 21
6.25000000000000034694e-03  6.56250000000000000000e-01  1.73042250424664603714e-02  1.11458362376179453967e-05 21
1.25000000000000006939e-02  6.56250000000000000000e-01  3.46020330162471814739e-02  2.20333360740829209412e-05 21
1.87499999999999993061e-02  6.56250000000000000000e-01  5.18964726109273979948e-02  2.29409783329900807125e-05 21
2.50000000000000013878e-02  6.56250000000000000000e-01  6.91709051275217340349e-02  2.38397764078940310739e-05 21
3.12500000000000000000e-02  6.56250000000000000000e-01  8.64186709434605487834e-02  2.47293837956769069208e-05 21
3.74999999999999986122e-02  6.56250000000000000000e-01  1.03633120716699597685e-01  2.56094575317167283401e-05 21
4.37499999999999972244e-02  6.56250000000000000000e-01  1.20807617949147114156e-01  2.64796583429455223424e-05 21
5.00000000000000027756e-02  6.56250000000000000000e-01  1.37935541545211537429e-01  2.73396507274037414703e-05 21
5.62500000000000013878e-02  6.56250000000000000000e-01  1.55010288364269055439e-01  2.81891031742309561281e-05 21
6.25000000000000000000e-02  6.56250000000000000000e-01  1.72025275766419960544e-01  2.90276881715900714198e-05 21
6.87500000000000055511e-02  6.56250000000000000000e-01  1.88973944150102213246e-01  2.98550824525123381648e-05 21
7.49999999999999972244e-02  6.56250000000000000000e-01  2.05849759481045307963e-01  3.06709670165605796655e-05 21
8.12500000000000027756e-02  6.56250000000000000000e-01  2.22646215811172026866e-01  3.14750273461283924803e-05 21
8.74999999999999944489e-02  6.56250000000000000000e-01  2.39356837786827342240e-01  3.22669534652264555774e-05 21
9.37500000000000000000e-02  6.56250000000000000000e-01  2.55975183145175699817e-01  3.30464400338792430034e-05 21
1.00000000000000005551e-01  6.56250000000000000000e-01  2.72494845197663482228e-01  3.38131866186586194090e-05 21
1.06249999999999997224e-01  6.56250000000000000000e-01  2.88909455300222606233e-01  3.45668975046953264041e-05 21
1.12500000000000002776e-01  6.56250000000000000000e-01  3.05212685308069553436e-01  3.53072822448230461134e-05 21
1.18749999999999994449e-01  6.56250000000000000000e-01  3.21398250015748343511e-01  3.60340553482996206469e-05 21
1.25000000000000000000e-01  6.56250000000000000000e-01  3.37459909579934713708e-01  3.67469366535089214665e-05 21
1.31250000000000005551e-01  6.56250000000000000000e-01  3.53391471925205369331e-01  3.74456512446386113879e-05 21
1.37500000000000011102e-01  6.56250000000000000000e-01  3.69186795130812650534e-01  3.81299299464510355051e-05 21
1.43749999999999988898e-01  6.56250000000000000000e-01  3.84839789799222342648e-01  3.87995087170467378712e-05 21
1.49999999999999994449e-01  6.56250000000000000000e-01  4.00344421402850259017e-01  3.94541295923866996986e-05 21
1.56250000000000000000e-01  6.56250000000000000000e-01  4.15694712611162475735e-01  4.00935401101421007297e-05 21
1.62500000000000005551e-01  6.56250000000000000000e-01  4.30884745594599771756e-01  4.07174938576448930405e-05 21
1.68750000000000011102e-01  6.56250000000000000000e-01  4.45908664306398028199e-01  4.13257501823416362186e-05 21
1.74999999999999988898e-01  6.56250000000000000000e-01  4.60760676739747576658e-01  4.19180747427971844843e-05 21
1.81249999999999994449e-01  6.56250000000000000000e-01  4.75435057161347152110e-01  4.24942389738447445779e-05 21
1.87500000000000000000e-01  6.56250000000000000000e-01  4.89926148318094500933e-01  4.30540208632979037873e-05 21
1.93750000000000005551e-01  6.56250000000000000000e-01  5.04228363618348551789e-01  4.35972047542199092618e-05 21
2.00000000000000011102e-01  6.56250000000000000000e-01  5.18336189286175308411e-01  4.41235809194306938252e-05 21
2.06249999999999988898e-01  6.56250000000000000000e-01  5.32244186485886006110e-01  4.46329467701511717337e-05 21
2.12499999999999994449e-01  6.56250000000000000000e-01  5.45946993420049930812e-01  4.51251056953205775812e-05 21
2.18750000000000000000e-01  6.56250000000000000000e-01  5.59439327395746754945e-01  4.55998679607105827927e-05 21
2.25000000000000005551e-01  6.56250000000000000000e-01  5.72715986861210057945e-01  4.60570507171409460057e-05 21
2.31250000000000011102e-01  6.56250000000000000000e-01  5.85771853411763743225e-01  4.64964774310461237405e-05 21
2.37499999999999988898e-01  6.56250000000000000000e-01  5.98601893761856573839e-01  4.69179791613427710217e-05 21
2.43749999999999994449e-01  6.56250000000000000000e-01  6.11201161687341509854e-01  4.73213927724147609410e-05 21
2.50000000000000000000e-01  6.56250000000000000000e-01  6.23564799929961277591e-01  4.77065633742723704813e-05 21
2.56249999999999977796e-01  6.56250000000000000000e-01  6.35688042072217851519e-01  4.80733420794576815638e-05 21
2.62500000000000011102e-01  6.56250000000000000000e-01  6.47566214373463289178e-01  4.84215875133919837481e-05 21
2.68749999999999988898e-01  6.56250000000000000000e-01  6.59194737571888622618e-01  4.87511656961370221097e-05 21
2.75000000000000022204e-01  6.56250000000000000000e-01  6.70569128650917001266e-01  4.90619490941535119077e-05 21
2.81250000000000000000e-01  6.56250000000000000000e-01  6.81685002565660003171e-01  4.93538185001307638800e-05 21
2.87499999999999977796e-01  6.56250000000000000000e-01  6.92538073935641373957e-01  4.96266608748241466742e-05 21
2.93750000000000011102e-01  6.56250000000000000000e-01  7.03124158695074608083e-01  4.98803712083439876324e-05 21
2.99999999999999988898e-01  6.56250000000000000000e-01  7.13439175706567896285e-01  5.01148518917693408525e-05 21
3.06250000000000022204e-01  6.56250000000000000000e-01  7.23479148335197663755e-01  5.03300120390237637480e-05 21
3.12500000000000000000e-01  6.56250000000000000000e-01  7.33240205979737602604e-01  5.05257693597105372874e-05 21
3.18749999999999977796e-01  6.56250000000000000000e-01  7.42718585567391786917e-01  5.07020476495645411319e-05 21
3.25000000000000011102e-01  6.56250000000000000000e-01  7.51910633001600436920e-01  5.08587797497517257739e-05 21
3.31249999999999988898e-01  6.56250000000000000000e-01  7.60812804573754553061e-01  5.09959045812413691579e-05 21
3.37500000000000022204e-01  6.56250000000000000000e-01  7.69421668326983776431e-01  5.11133695487719919015e-05 21
3.43750000000000000000e-01  6.56250000000000000000e-01  7.77733905380584844558e-01  5.12111292162442666154e-05 21
3.49999999999999977796e-01  6.56250000000000000000e-01  7.85746311208410319615e-01  5.12891464281572950767e-05 21
3.56250000000000011102e-01  6.56250000000000000000e-01  7.93455796876329055856e-01  5.13473902690186889686e-05 21
3.62499999999999988898e-01  6.56250000000000000000e-01  8.00859390230318823889e-01  5.13858388248022990297e-05 21
3.68750000000000022204e-01  6.56250000000000000000e-01  8.07954237044196443840e-01  5.14044772845778652481e-05 21
3.75000000000000000000e-01  6.56250000000000000000e-01  8.14737602119662174260e-01  5.14032982590340026263e-05 21
3.81249999999999977796e-01  6.56250000000000000000e-01  8.21206870340554395682e-01  5.13823020005244046615e-05 21
3.87500000000000011102e-01  6.56250000000000000000e-01  8.27359547679752393989e-01  5.13414976771597864058e-05 21
3.93749999999999988898e-01  6.56250000000000000000e-01  8.33193262164699022243e-01  5.12808993406999036324e-05 21
4.00000000000000022204e-01  6.56250000000000000000e-01  8.38705764786058738380e-01  5.12005317050423514047e-05 21
4.06250000000000000000e-01  6.56250000000000000000e-01  8.43894930369632589873e-01  5.11004252564672967196e-05 21
4.12499999999999977796e-01  6.56250000000000000000e-01  8.48758758393466372638e-01  5.09806184292305175632e-05 21
4.18750000000000011102e-01  6.56250000000000000000e-01  8.53295373758462649683e-01  5.08411582184065125034e-05 21
4.24999999999999988898e-01  6.56250000000000000000e-01  8.57503027514670446152e-01  5.06820967578480718885e-05 21
4.31250000000000022204e-01  6.56250000000000000000e-01  8.61380097529331090200e-01  5.05034975081253278972e-05 21
4.37500000000000000000e-01  6.56250000000000000000e-01  8.64925089120097356776e-01  5.03054273756076142377e-05 21
4.43749999999999977796e-01  6.56250000000000000000e-01  8.68136635624516372900e-01  5.00879634328654788078e-05 21
4.50000000000000011102e-01  6.56250000000000000000e-01  8.71013498929324780917e-01  4.98511904678533568358e-05 21
4.56249999999999988898e-01  6.56250000000000000000e-01  8.73554569950740988915e-01  4.95951979747610849358e-05 21
4.62500000000000022204e-01  6.56250000000000000000e-01  8.75758869055619504351e-01  4.93200865391285603323e-05 21
4.68750000000000000000e-01  6.56250000000000000000e-01  8.77625546446796356292e-01  4.90259601195752736658e-05 21
4.74999999999999977796e-01  6.56250000000000000000e-01  8.79153882482234583229e-01  4.87129344766135119471e-05 21
4.81250000000000011102e-01  6.56250000000000000000e-01  8.80343287961194098656e-01  4.83811283926716129145e-05 21
4.87499999999999988898e-01  6.56250000000000000000e-01  8.81193304344887073931e-01  4.80306701196031582413e-05 21
4.93750000000000022204e-01  6.56250000000000000000e-01  8.81703603934515411922e-01  4.76616960670694922442e-05 21
5.00000000000000000000e-01  6.56250000000000000000e-01  8.81873990001209362433e-01  4.72743471456871233727e-05 21
5.06249999999999977796e-01  6.56250000000000000000e-01  8.81704396857752814576e-01  4.68687728296668382200e-05 21
5.12499999999999955591e-01  6.56250000000000000000e-01  8.81194889885445475919e-01  4.64451295612011705316e-05 21
5.18750000000000044409e-01  6.56250000000000000000e-01  8.80345665507984875831e-01  4.60035816018944387906e-05 21
5.25000000000000022204e-01  6.56250000000000000000e-01  8.79157051119406007800e-01  4.55442973051889410385e-05 21
5.31250000000000000000e-01  6.56250000000000000000e-01  8.77629504951084160602e-01  4.50674558318819862279e-05 21
5.37499999999999977796e-01  6.56250000000000000000e-01  8.75763615903083159075e-01  4.45732390754738361238e-05 21
5.43749999999999955591e-01  6.56250000000000000000e-01  8.73560103309417579354e-01  4.40618392981706463729e-05 21
5.50000000000000044409e-01  6.56250000000000000000e-01  8.71019816667497503992e-01  4.35334522950192592816e-05 21
5.56250000000000022204e-01  6.56250000000000000000e-01  8.68143735305469621544e-01  4.29882824796168350190e-05 21
5.62500000000000000000e-01  6.56250000000000000000e-01  8.64932968007636082675e-01  4.24265398368817159280e-05 21
5.68749999999999977796e-01  6.56250000000000000000e-01  8.61388752585379058324e-01  4.18484414601572041192e-05 21
5.74999999999999955591e-01  6.56250000000000000000e-01  8.57512455402599793608e-01  4.12542088286116381823e-05 21
5.81250000000000044409e-01  6.56250000000000000000e-01  8.53305570844224425819e-01  4.06440724566303757115e-05 21
5.87500000000000022204e-01  6.56250000000000000000e-01  8.48769720744729228024e-01  4.00182671663751321489e-05 21
5.93750000000000000000e-01  6.56250000000000000000e-01  8.43906653761302139038e-01  3.93770335869181309363e-05 21
5.99999999999999977796e-01  6.56250000000000000000e-01  8.38718244698176462748e-01  3.87206195874290060033e-05 21
6.06249999999999955591e-01  6.56250000000000000000e-01  8.33206493785590973644e-01  3.80492784488595248149e-05 21
6.12500000000000044409e-01  6.56250000000000000000e-01  8.27373525909642526521e-01  3.73632677869162321826e-05 21
6.18750000000000022204e-01  6.56250000000000000000e-01  8.21221589788778016938e-01  3.66628537770141704755e-05 21
6.25000000000000000000e-01  6.56250000000000000000e-01  8.14753057113238643439e-01  3.59483046825648244749e-05 21
6.31249999999999977796e-01  6.56250000000000000000e-01  8.07970421624101931002e-01  3.52198973790907032821e-05 21
6.37499999999999955591e-01  6.56250000000000000000e-01  8.00876298156810384477e-01  3.44779123334637560561e-05 21
6.43750000000000044409e-01  6.56250000000000000000e-01  7.93473421631873732096e-01  3.37226347242314261621e-05 21
6.50000000000000022204e-01  6.56250000000000000000e-01  7.85764645998150546014e-01  3.29543566880419191989e-05 21
6.56250000000000000000e-01  6.56250000000000000000e-01  7.77752943135305407907e-01  3.21733744957919398644e-05 21
6.62499999999999977796e-01  6.56250000000000000000e-01  7.69441401708130467973e-01  3.13799884021914721188e-05 21
6.68749999999999955591e-01  6.56250000000000000000e-01  7.60833225973706728240e-01  3.05745046292882349803e-05 21
6.75000000000000044409e-01  6.56250000000000000000e-01  7.51931734546869900981e-01  2.97572344803986865713e-05 21
6.81250000000000022204e-01  6.56250000000000000000e-01  7.42740359123608917535e-01  2.89284914325449449279e-05 21
6.87500000000000000000e-01  6.56250000000000000000e-01  7.33262643152169268923e-01  2.80885969281552405619e-05 21
6.93749999999999977796e-01  6.56250000000000000000e-01  7.23502240474604985110e-01  2.72378726317024089099e-05 21
6.99999999999999955591e-01  6.56250000000000000000e-01  7.13462913910008711404e-01  2.63766484509542209480e-05 21
7.06250000000000044409e-01  6.56250000000000000000e-01  7.03148533811002840466e-01  2.55052552801116050318e-05 21
7.12500000000000022204e-01  6.56250000000000000000e-01  6.92563076567347835066e-01  2.46240291683630374564e-05 21
7.18750000000000000000e-01  6.56250000000000000000e-01  6.81710623073848331899e-01  2.37333103119130583991e-05 21
7.24999999999999977796e-01  6.56250000000000000000e-01  6.70595357158410454446e-01  2.28334416007003326854e-05 21
7.31249999999999955591e-01  6.56250000000000000000e-01  6.59221563967200219203e-01  2.19247703848735042698e-05 21
7.37500000000000044409e-01  6.56250000000000000000e-01  6.47593628314344083030e-01  2.10076466324871091729e-05 21
7.43750000000000022204e-01  6.56250000000000000000e-01  6.35716032990209733988e-01  2.00824240877972570729e-05 21
7.50000000000000000000e-01  6.56250000000000000000e-01  6.23593357034256556837e-01  1.91494590791041474631e-05 21
7.56249999999999977796e-01  6.56250000000000000000e-01  6.11230273967954929049e-01  1.82091121589955662330e-05 21
7.62499999999999955591e-01  6.56250000000000000000e-01  5.98631549996150646997e-01  1.72617448676026796761e-05 21
7.68750000000000044409e-01  6.56250000000000000000e-01  5.85802042166584824301e-01  1.63077226097430028062e-05 21
7.75000000000000022204e-01  6.56250000000000000000e-01  5.72746696497793972291e-01  1.53474141333376223884e-05 21
7.81250000000000000000e-01  6.56250000000000000000e-01  5.59470546075092389771e-01  1.43811886150757572977e-05 21
7.87499999999999977796e-01  6.56250000000000000000e-01  5.45978709107509785348e-01  1.34094182355770641379e-05 21
7.93749999999999955591e-01  6.56250000000000000000e-01  5.32276386953155045134e-01  1.24324795011121480570e-05 21
8.00000000000000044409e-01  6.56250000000000000000e-01  5.18368862120387130510e-01  1.14507467077196167793e-05 21
8.06250000000000022204e-01  6.56250000000000000000e-01  5.04261496223025851293e-01  1.04646000769204050584e-05 21
8.12500000000000000000e-01  6.56250000000000000000e-01  4.89959727920134757717e-01  9.47441882304111970825e-06 21
8.18749999999999977796e-01  6.56250000000000000000e-01  4.75469070814942218473e-01  8.48058537894491593079e-06 21
8.24999999999999955591e-01  6.56250000000000000000e-01  4.60795111332289841766e-01  7.48348220064309899158e-06 21
8.31250000000000044409e-01  6.56250000000000000000e-01  4.45943506562809621752e-01  6.48349377074808330690e-06 21
8.37500000000000022204e-01  6.56250000000000000000e-01  4.30919982081997499090e-01  5.48100645986204781934e-06 21
8.43750000000000000000e-01  6.56250000000000000000e-01  4.15730329745605309277e-01  4.47640566753060298311e-06 21
8.49999999999999977796e-01  6.56250000000000000000e-01  4.00380405453101162472e-01  3.47007934153875652328e-06 21
8.56249999999999955591e-01  6.56250000000000000000e-01  3.84876126892852943318e-01  2.46241508683464616070e-06 21
8.62500000000000044409e-01  6.56250000000000000000e-01  3.69223471259433388969e-01  1.45380132554606689155e-06 21
8.68750000000000022204e-01  6.56250000000000000000e-01  3.53428472948671301701e-01  4.44627778872774825913e-07 21
8.75000000000000000000e-01  6.56250000000000000000e-01  3.37497221234517141841e-01  5.64717928863700535658e-07 21
8.81249999999999977796e-01  6.56250000000000000000e-01  3.21435857916787914856e-01  1.57384569127172468939e-06 21
8.87499999999999955591e-01  6.56250000000000000000e-01  3.05250574956644371571e-01  2.58236632971753365950e-06 21
8.93750000000000044409e-01  6.56250000000000000000e-01  2.88947612089743288699e-01  3.58989201609816177552e-06 21
9.00000000000000022204e-01  6.56250000000000000000e-01  2.72533254417584747120e-01  4.59603330249525043882e-06 21
9.06250000000000000000e-01  6.56250000000000000000e-01  2.56013829988194052678e-01  5.60040298441810691088e-06 21
9.12499999999999977796e-01  6.56250000000000000000e-01  2.39395707353773939952e-01  6.60261348106594425644e-06 21
9.18749999999999955591e-01  6.56250000000000000000e-01  2.22685293116976185113e-01  7.60227845783556510639e-06 21
9.25000000000000044409e-01  6.56250000000000000000e-01  2.05889029460950861994e-01  8.59901288888242909536e-06 21
9.31250000000000022204e-01  6.56250000000000000000e-01  1.89013391664439922568e-01  9.59243188522473921864e-06 21
9.37500000000000000000e-01  6.56250000000000000000e-01  1.72064885607605494444e-01  1.05821530136107622155e-05 21
9.43749999999999977796e-01  6.56250000000000000000e-01  1.55050045262073721286e-01  1.15677946302406020607e-05 21
9.49999999999999955591e-01  6.56250000000000000000e-01  1.37975430172262575335e-01  1.25489763235231421845e-05 21
9.56250000000000044409e-01  6.56250000000000000000e-01  1.20847622927917563995e-01  1.35253204274765614912e-05 21
9.62500000000000022204e-01  6.56250000000000000000e-01  1.03673226624345915514e-01  1.44964501146982449598e-05 21
9.68750000000000000000e-01  6.56250000000000000000e-01  8.64588623184996685200e-02  1.54619912432485406839e-05 21
9.74999999999999977796e-01  6.56250000000000000000e-01  6.92111664753091437863e-02  1.64215713794046980212e-05 21
9.81249999999999955591e-01  6.56250000000000000000e-01  5.19367884099781323970e-02  1.73748207173418656168e-05 21
9.87500000000000044409e-01  6.56250000000000000000e-01  3.46423877241170130592e-02  1.83213717958388699891e-05 21
9.93750000000000022204e-01  6.56250000000000000000e-01  1.73246603749506143666e-02  9.28949624633135240259e-06 21
1.00000000000000000000e+00  6.56250000000000000000e-01  0.00000000000000000000e+00  1.08004205348419979531e-16 21
0.00000000000000000000e+00  6.62499999999999977796e-01  0.00000000000000000000e+00  0.00000000000000000000e+00 21
6.25000000000000034694e-03  6.62499999999999977796e-01  1.71188090129552120122e-02  1.15092630382646055054e-05 21
1.25000000000000006939e-02  6.62499999999999977796e-01  3.42312817210580627725e-02  2.27507671429830193865e-05 21
1.87499999999999993061e-02  6.62499999999999977796e-01  5.13408933283298687944e-02  2.36477904992163368014e-05 21
2.50000000000000013878e-02  6.62499999999999977796e-01  6.84307120439085481145e-02  2.45356971785293254129e-05 21
3.12500000000000000000e-02  6.62499999999999977796e-01  8.54941494173565019743e-02  2.54141448791656010542e-05 21
3.74999999999999986122e-02  6.62499999999999977796e-01  1.02524627168743248662e-01  2.62827949484567557903e-05 21
4.37499999999999972244e-02  6.62499999999999977796e-01  1.19515579724713313925e-01  2.71413124975777853010e-05 21
5.00000000000000027756e-02  6.62499999999999977796e-01  1.36460456749621067418e-01  2.79893665494634902302e-05 21
5.62500000000000013878e-02  6.62499999999999977796e-01  1.53352725670804157510e-01  2.88266301718687056876e-05 21
6.25000000000000000000e-02  6.62499999999999977796e-01  1.70185874197039926914e-01  2.96527805782043074601e-05 21
6.87500000000000055511e-02  6.62499999999999977796e-01  1.86953412829141490947e-01  3.04674992682441025948e-05 21
7.49999999999999972244e-02  6.62499999999999977796e-01  2.03648877361758379179e-01  3.12704721753820358288e-05 21
8.12500000000000027756e-02  6.62499999999999977796e-01  2.20265831375524634428e-01  3.20613897143717796467e-05 21
8.74999999999999944489e-02  6.62499999999999977796e-01  2.36797868718391396614e-01  3.28399469297080415231e-05 21
9.37500000000000000000e-02  6.62499999999999977796e-01  2.53238615975121650337e-01  3.36058438124009484227e-05 21
1.00000000000000005551e-01  6.62499999999999977796e-01  2.69581734924857430169e-01  3.43587849212512175257e-05 21
1.06249999999999997224e-01  6.62499999999999977796e-01  2.85820924984010571457e-01  3.50984801105735932936e-05 21
1.12500000000000002776e-01  6.62499999999999977796e-01  3.01949925635755622721e-01  3.58246441444776131391e-05 21
1.18749999999999994449e-01  6.62499999999999977796e-01  3.17962518843280805836e-01  3.65369971037088347998e-05 21
1.25000000000000000000e-01  6.62499999999999977796e-01  3.33852531447107858664e-01  3.72352643458473409055e-05 21
1.31250000000000005551e-01  6.62499999999999977796e-01  3.49613837544874961338e-01  3.79191766983755229603e-05 21
1.37500000000000011102e-01  6.62499999999999977796e-01  3.65240360853081480474e-01  3.85884704698913338916e-05 21
1.43749999999999988898e-01  6.62499999999999977796e-01  3.80726077049502176219e-01  3.92428876601624843090e-05 21
1.49999999999999994449e-01  6.62499999999999977796e-01  3.96065016095729915957e-01  3.98821760084211440756e-05 21
1.56250000000000000000e-01  6.62499999999999977796e-01  4.11251264538839700347e-01  4.05060889894781617215e-05 21
1.62500000000000005551e-01  6.62499999999999977796e-01  4.26278967790987228792e-01  4.11143860589158194330e-05 21
1.68750000000000011102e-01  6.62499999999999977796e-01  4.41142332386364632857e-01  4.17068328454894832191e-05 21
1.74999999999999988898e-01  6.62499999999999977796e-01  4.55835628215171262401e-01  4.22832007616058547228e-05 21
1.81249999999999994449e-01  6.62499999999999977796e-01  4.70353190732128945140e-01  4.28432676431445003118e-05 21
1.87500000000000000000e-01  6.62499999999999977796e-01  4.84689423140247155342e-01  4.33868178593144193655e-05 21
1.93750000000000005551e-01  6.62499999999999977796e-01  4.98838798549461837073e-01  4.39136414292495835809e-05 21
2.00000000000000011102e-01  6.62499999999999977796e-01  5.12795862105918653917e-01  4.44235355409050569619e-05 21
2.06249999999999988898e-01  6.62499999999999977796e-01  5.26555233096068664445e-01  4.49163034834665353401e-05 21
2.12499999999999994449e-01  6.62499999999999977796e-01  5.40111607020385631195e-01  4.53917553733251821768e-05 21
2.18750000000000000000e-01  6.62499999999999977796e-01  5.53459757638699922921e-01  4.58497078792419188176e-05 21
2.25000000000000005551e-01  6.62499999999999977796e-01  5.66594538985019990918e-01  4.62899842863517818614e-05 21
2.31250000000000011102e-01  6.62499999999999977796e-01  5.79510887350515591088e-01  4.67124154489573228943e-05 21
2.37499999999999988898e-01  6.62499999999999977796e-01  5.92203823237954174452e-01  4.71168375754116297571e-05 21
2.43749999999999994449e-01  6.62499999999999977796e-01  6.04668453278006334806e-01  4.75030956771371748459e-05 21
2.50000000000000000000e-01  6.62499999999999977796e-01  6.16899972119275163962e-01  4.78710400856341422582e-05 21
2.56249999999999977796e-01  6.62499999999999977796e-01  6.28893664277891950576e-01  4.82205294691784303041e-05 21
2.62500000000000011102e-01  6.62499999999999977796e-01  6.40644905957137411612e-01  4.85514291747035642288e-05 21
2.68749999999999988898e-01  6.62499999999999977796e-01  6.52149166830495841118e-01  4.88636107872642000416e-05 21
2.75000000000000022204e-01  6.62499999999999977796e-01  6.63402011785184098080e-01  4.91569551778203717163e-05 21
2.81250000000000000000e-01  6.62499999999999977796e-01  6.74399102636424996327e-01  4.94313480957631057322e-05 21
2.87499999999999977796e-01  6.62499999999999977796e-01  6.85136199795387645928e-01  4.96866847261578925554e-05 21
2.93750000000000011102e-01  6.62499999999999977796e-01  6.95609163907582206399e-01  4.99228657769856809523e-05 21
2.99999999999999988898e-01  6.62499999999999977796e-01  7.05813957445308726157e-01  5.01398008686537721701e-05 21
3.06250000000000022204e-01  6.62499999999999977796e-01  7.15746646266463337760e-01  5.03374063063333210266e-05 21
3.12500000000000000000e-01  6.62499999999999977796e-01  7.25403401131108793720e-01  5.05156052287292212100e-05 21
3.18749999999999977796e-01  6.62499999999999977796e-01  7.34780499175463952533e-01  5.06743298928080676546e-05 21
3.25000000000000011102e-01  6.62499999999999977796e-01  7.43874325350649567845e-01  5.08135181894742160580e-05 21
3.31249999999999988898e-01  6.62499999999999977796e-01  7.52681373812664977763e-01  5.09331173598193132079e-05 21
3.37500000000000022204e-01  6.62499999999999977796e-01  7.61198249277628247178e-01  5.10330803462633042500e-05 21
3.43750000000000000000e-01  6.62499999999999977796e-01  7.69421668326791707848e-01  5.11133697409515974641e-05 21
3.49999999999999977796e-01  6.62499999999999977796e-01  7.77348460677005803632e-01  5.11739531569022076951e-05 21
3.56250000000000011102e-01  6.62499999999999977796e-01  7.84975570397333566319e-01  5.12148088307462501234e-05 21
3.62499999999999988898e-01  6.62499999999999977796e-01  7.92300057092872100917e-01  5.12359199286160915676e-05 21
3.68750000000000022204e-01  6.62499999999999977796e-01  7.99319097034810410740e-01  5.12372780739900335334e-05 21
3.75000000000000000000e-01  6.62499999999999977796e-01  8.06029984248120001666e-01  5.12188842602956384553e-05 21
3.81249999999999977796e-01  6.62499999999999977796e-01  8.12430131559618073922e-01  5.11807439933509300545e-05 21
3.87500000000000011102e-01  6.62499999999999977796e-01  8.18517071590443512363e-01  5.11228722173129312978e-05 21
3.93749999999999988898e-01  6.62499999999999977796e-01  8.24288457707815003239e-01  5.10452927717786053563e-05 21
4.00000000000000022204e-01  6.62499999999999977796e-01  8.29742064934816614397e-01  5.09480332696599091946e-05 21
4.06250000000000000000e-01  6.62499999999999977796e-01  8.34875790800569173022e-01  5.08311326852250999764e-05 21
4.12499999999999977796e-01  6.62499999999999977796e-01  8.39687656156086426051e-01  5.06946360258053729808e-05 21
4.18750000000000011102e-01  6.62499999999999977796e-01  8.44175805936630663240e-01  5.05385949587378036085e-05 21
4.24999999999999988898e-01  6.62499999999999977796e-01  8.48338509873402313310e-01  5.03630712642699762682e-05 21
4.31250000000000022204e-01  6.62499999999999977796e-01  8.52174163166916853740e-01  5.01681304861945065454e-05 21
4.37500000000000000000e-01  6.62499999999999977796e-01  8.55681287097792342422e-01  4.99538498001106390234e-05 21
4.43749999999999977796e-01  6.62499999999999977796e-01  8.58858529604152320935e-01  4.97203106553101292775e-05 21
4.50000000000000011102e-01  6.62499999999999977796e-01  8.61704665797910607239e-01  4.94676037041674732109e-05 21
4.56249999999999988898e-01  6.62499999999999977796e-01  8.64218598440312901765e-01  4.91958254426050345387e-05 21
4.62500000000000022204e-01  6.62499999999999977796e-01  8.66399358361254035010e-01  4.89050818631708850148e-05 21
4.68750000000000000000e-01  6.62499999999999977796e-01  8.68246104837201659876e-01  4.85954841231706069493e-05 21
4.74999999999999977796e-01  6.62499999999999977796e-01  8.69758125912117541212e-01  4.82671516959243263045e-05 21
4.81250000000000011102e-01  6.62499999999999977796e-01  8.70934838672557165573e-01  4.79202116970833813525e-05 21
4.87499999999999988898e-01  6.62499999999999977796e-01  8.71775789473410167574e-01  4.75547978200374643620e-05 21
4.93750000000000022204e-01  6.62499999999999977796e-01  8.72280654113094078284e-01  4.71710499795330306938e-05 21
5.00000000000000000000e-01  6.62499999999999977796e-01  8.72449237955646994536e-01  4.67691171502915281621e-05 21
5.06249999999999977796e-01  6.62499999999999977796e-01  8.72281476009279743700e-01  4.63491537938676145814e-05 21
5.12499999999999955591e-01  6.62499999999999977796e-01  8.71777432949006225726e-01  4.59113222239793117296e-05 21
5.18750000000000044409e-01  6.62499999999999977796e-01  8.70937303093522352526e-01  4.54557907318964282695e-05 21
5.25000000000000022204e-01  6.62499999999999977796e-01  8.69761410328605988340e-01  4.49827352074771980028e-05 21
5.31250000000000000000e-01  6.62499999999999977796e-01  8.68250207983058741590e-01  4.44923382661999156085e-05 21
5.37499999999999977796e-01  6.62499999999999977796e-01  8.66404278654524184766e-01  4.39847885930211290884e-05 21
5.43749999999999955591e-01  6.62499999999999977796e-01  8.64224333984708437129e-01  4.34602810470696709899e-05 21
5.50000000000000044409e-01  6.62499999999999977796e-01  8.61711214381322143652e-01  4.29190202925200381401e-05 21
5.56250000000000022204e-01  6.62499999999999977796e-01  8.58865888702423863066e-01  4.23612123837679988014e-05 21
5.62500000000000000000e-01  6.62499999999999977796e-01  8.55689453874074135165e-01  4.17870735183178965144e-05 21
5.68749999999999977796e-01  6.62499999999999977796e-01  8.52183134472357828315e-01  4.11968250452199313827e-05 21
5.74999999999999955591e-01  6.62499999999999977796e-01  8.48348282249869134475e-01  4.05906947974488119257e-05 21
5.81250000000000044409e-01  6.62499999999999977796e-01  8.44186375616249984333e-01  3.99689153394167107081e-05 21
5.87500000000000022204e-01  6.62499999999999977796e-01  8.39699019064467089279e-01  3.93317276451421449224e-05 21
5.93750000000000000000e-01  6.62499999999999977796e-01  8.34887942556830520147e-01  3.86793764238779758102e-05 21
5.99999999999999977796e-01  6.62499999999999977796e-01  8.29755000854055846382e-01  3.80121140304279236943e-05 21
6.06249999999999955591e-01  6.62499999999999977796e-01  8.24302172803694555014e-01  3.73301968923378524323e-05 21
6.12500000000000044409e-01  6.62499999999999977796e-01  8.18531560574266570107e-01  3.66338883942551873929e-05 21
6.18750000000000022204e-01  6.62499999999999977796e-01  8.12445388846571470154e-01  3.59234570400657204914e-05 21
6.25000000000000000000e-01  6.62499999999999977796e-01  8.06046003956034762261e-01  3.51991763455350437084e-05 21