Titile = 'Poisson'  
VARIABLES = X, Y, U, Error, Rank 
zone N= 3381, E = 6400
DATAPACKING=POINT, ZONETYPE=FETRIANGLE
0.00000000000000000000e+00  2.50000000000000000000e-01  0.00000000000000000000e+00  0.00000000000000000000e+00 2
6.25000000000000034694e-03  2.50000000000000000000e-01  1.38976996430117526876e-02  1.45825643702909152344e-05 2
1.25000000000000006939e-02  2.50000000000000000000e-01  2.77896603927609772700e-02  2.87784413890816714865e-05 2
1.87499999999999993061e-02  2.50000000000000000000e-01  4.16559504074878600433e-02  2.80059318303396698191e-05 2
2.50000000000000013878e-02  2.50000000000000000000e-01  5.55061812603752646744e-02  2.72226254516283461271e-05 2
3.12500000000000000000e-02  2.50000000000000000000e-01  6.93350134237794846204e-02  2.64288242337595846720e-05 2
3.74999999999999986122e-02  2.50000000000000000000e-01  8.31371156196539368155e-02  2.56248341984760541479e-05 2
4.37499999999999972244e-02  2.50000000000000000000e-01  9.69071668748735653987e-02  2.48109653057243528806e-05 2
5.00000000000000027756e-02  2.50000000000000000000e-01  1.10639858572545976556e-01  2.39875313088333541600e-05 2
5.62500000000000013878e-02  2.50000000000000000000e-01  1.24329896498615935507e-01  2.31548496652800306350e-05 2
6.25000000000000000000e-02  2.50000000000000000000e-01  1.37972002882858935102e-01  2.23132413874616020166e-05 2
6.87500000000000055511e-02  2.50000000000000000000e-01  1.51560918433572527908e-01  2.14630309293695198392e-05 2
7.49999999999999972244e-02  2.50000000000000000000e-01  1.65091404365131588783e-01  2.06045460599268981383e-05 2
8.12500000000000027756e-02  2.50000000000000000000e-01  1.78558244417654665703e-01  1.97381177510780325690e-05 2
8.74999999999999944489e-02  2.50000000000000000000e-01  1.91956246867942215140e-01  1.88640800211359316307e-05 2
9.37500000000000000000e-02  2.50000000000000000000e-01  2.05280246531003518484e-01  1.79827698248702372297e-05 2
1.00000000000000005551e-01  2.50000000000000000000e-01  2.18525106751346370748e-01  1.70945269358790952197e-05 2
1.06249999999999997224e-01  2.50000000000000000000e-01  2.31685721383212500646e-01  1.61996937728392520484e-05 2
1.12500000000000002776e-01  2.50000000000000000000e-01  2.44757016759149959029e-01  1.52986153233725108436e-05 2
1.18749999999999994449e-01  2.50000000000000000000e-01  2.57733953645967017732e-01  1.43916389696019386690e-05 2
1.25000000000000000000e-01  2.50000000000000000000e-01  2.70611529187461785639e-01  1.34791143633350429809e-05 2
1.31250000000000005551e-01  2.50000000000000000000e-01  2.83384778833131734110e-01  1.25613933047996617631e-05 2
1.37500000000000011102e-01  2.50000000000000000000e-01  2.96048778252084476836e-01  1.16388295888780746168e-05 2
1.43749999999999988898e-01  2.50000000000000000000e-01  3.08598645231479340456e-01  1.07117788871735619693e-05 2
1.49999999999999994449e-01  2.50000000000000000000e-01  3.21029541558663145118e-01  9.78059856010515815683e-06 2
1.56250000000000000000e-01  2.50000000000000000000e-01  3.33336674886539341411e-01  8.84564766612250252820e-06 2
1.62500000000000005551e-01  2.50000000000000000000e-01  3.45515300580872097846e-01  7.90728658561778985359e-06 2
1.68750000000000011102e-01  2.50000000000000000000e-01  3.57560723549647407893e-01  6.96587709653195830128e-06 2
1.74999999999999988898e-01  2.50000000000000000000e-01  3.69468300053019560458e-01  6.02178213404691575761e-06 2
1.81249999999999994449e-01  2.50000000000000000000e-01  3.81233439493566639289e-01  5.07536565585997578864e-06 2
1.87500000000000000000e-01  2.50000000000000000000e-01  3.92851606186093493811e-01  4.12699254248583002891e-06 2
1.93750000000000005551e-01  2.50000000000000000000e-01  4.04318321106146516541e-01  3.17702837798750081788e-06 2
2.00000000000000011102e-01  2.50000000000000000000e-01  4.15629163616862695729e-01  2.22583940928666734749e-06 2
2.06249999999999988898e-01  2.50000000000000000000e-01  4.26779773173140808407e-01  1.27379233622049170549e-06 2
2.12499999999999994449e-01  2.50000000000000000000e-01  4.37765851002762884647e-01  3.21254218615951714355e-07 2
2.18750000000000000000e-01  2.50000000000000000000e-01  4.48583161763529192356e-01  6.31407788886928500460e-07 2
2.25000000000000005551e-01  2.50000000000000000000e-01  4.59227535176278733875e-01  1.58382636272769161678e-06 2
2.31250000000000011102e-01  2.50000000000000000000e-01  4.69694867632428014748e-01  2.53563433538772642351e-06 2
2.37499999999999988898e-01  2.50000000000000000000e-01  4.79981123776047569063e-01  3.48646477948966193594e-06 2
2.43749999999999994449e-01  2.50000000000000000000e-01  4.90082338059629030180e-01  4.43595108917671510085e-06 2
2.50000000000000000000e-01  2.50000000000000000000e-01  4.99994616272664060830e-01  5.38372733582814788633e-06 2
2.56249999999999977796e-01  2.50000000000000000000e-01  5.09714137043406623206e-01  6.32942793987734120265e-06 2
2.62500000000000011102e-01  2.50000000000000000000e-01  5.19237153311313259785e-01  7.27268858247143157314e-06 2
2.68749999999999988898e-01  2.50000000000000000000e-01  5.28559993772704350690e-01  8.21314524801497469753e-06 2
2.75000000000000022204e-01  2.50000000000000000000e-01  5.37679064294667385937e-01  9.15043581906083147715e-06 2
2.81250000000000000000e-01  2.50000000000000000000e-01  5.46590849302365566764e-01  1.00841985131161493427e-05 2
2.87499999999999977796e-01  2.50000000000000000000e-01  5.55291913132598291547e-01  1.10140737835662250177e-05 2
2.93750000000000011102e-01  2.50000000000000000000e-01  5.63778901360082906891e-01  1.19397026896450597633e-05 2
2.99999999999999988898e-01  2.50000000000000000000e-01  5.72048542088889555579e-01  1.28607287946946868828e-05 2
3.06250000000000022204e-01  2.50000000000000000000e-01  5.80097647215308320767e-01  1.37767968148017061480e-05 2
3.12500000000000000000e-01  2.50000000000000000000e-01  5.87923113656202978028e-01  1.46875534763335480193e-05 2
3.18749999999999977796e-01  2.50000000000000000000e-01  5.95521924544962777404e-01  1.55926479986634447528e-05 2
3.25000000000000011102e-01  2.50000000000000000000e-01  6.02891150395760466729e-01  1.64917310304657505071e-05 2
3.31249999999999988898e-01  2.50000000000000000000e-01  6.10027950231258109248e-01  1.73844564506087095879e-05 2
3.37500000000000022204e-01  2.50000000000000000000e-01  6.16929572679777993294e-01  1.82704795826937882453e-05 2
3.43750000000000000000e-01  2.50000000000000000000e-01  6.23593357033986106508e-01  1.91494593494434539593e-05 2
3.49999999999999977796e-01  2.50000000000000000000e-01  6.30016734278669998659e-01  2.00210563804370522689e-05 2
3.56250000000000011102e-01  2.50000000000000000000e-01  6.36197228079134036172e-01  2.08849351517326198291e-05 2
3.62499999999999988898e-01  2.50000000000000000000e-01  6.42132455737794205497e-01  2.17407621942999895737e-05 2
3.68750000000000022204e-01  2.50000000000000000000e-01  6.47820129111174480840e-01  2.25882078020989141010e-05 2
3.75000000000000000000e-01  2.50000000000000000000e-01  6.53258055492870859382e-01  2.34269453173174824201e-05 2
3.81249999999999977796e-01  2.50000000000000000000e-01  6.58444138459009398190e-01  2.42566511289288300190e-05 2
3.87500000000000011102e-01  2.50000000000000000000e-01  6.63376378675465838697e-01  2.50770057887983455203e-05 2
3.93749999999999988898e-01  2.50000000000000000000e-01  6.68052874670268637125e-01  2.58876925129936097392e-05 2
4.00000000000000022204e-01  2.50000000000000000000e-01  6.72471823564661619343e-01  2.66883992956490345705e-05 2
4.06250000000000000000e-01  2.50000000000000000000e-01  6.76631521770185040410e-01  2.74788169912776325532e-05 2
4.12499999999999977796e-01  2.50000000000000000000e-01  6.80530365643669754583e-01  2.82586412062579839244e-05 2
4.18750000000000011102e-01  2.50000000000000000000e-01  6.84166852106799172617e-01  2.90275710889131843828e-05 2
4.24999999999999988898e-01  2.50000000000000000000e-01  6.87539579224684227476e-01  2.97853103362610838190e-05 2
4.31250000000000022204e-01  2.50000000000000000000e-01  6.90647246746928122896e-01  3.05315667152861180966e-05 2
4.37500000000000000000e-01  2.50000000000000000000e-01  6.93488656608414855143e-01  3.12660526587960063694e-05 2
4.43749999999999977796e-01  2.50000000000000000000e-01  6.96062713391560228260e-01  3.19884850026319611516e-05 2
4.50000000000000011102e-01  2.50000000000000000000e-01  6.98368424748658789269e-01  3.26985850515049136789e-05 2
4.56249999999999988898e-01  2.50000000000000000000e-01  7.00404901783858169217e-01  3.33960792811005546810e-05 2
4.62500000000000022204e-01  2.50000000000000000000e-01  7.02171359396689731547e-01  3.40806985996700007036e-05 2
4.68750000000000000000e-01  2.50000000000000000000e-01  7.03667116583944318720e-01  3.47521792467553325423e-05 2
4.74999999999999977796e-01  2.50000000000000000000e-01  7.04891596702969081001e-01  3.54102621381580107141e-05 2
4.81250000000000011102e-01  2.50000000000000000000e-01  7.05844327693129103274e-01  3.60546938100725355980e-05 2
4.87499999999999988898e-01  2.50000000000000000000e-01  7.06524942258546784224e-01  3.66852257667193981661e-05 2
4.93750000000000022204e-01  2.50000000000000000000e-01  7.06933178009609974879e-01  3.73016146673066373296e-05 2
5.00000000000000000000e-01  2.50000000000000000000e-01  7.07068877563425735033e-01  3.79036231217266816884e-05 2
5.06249999999999977796e-01  2.50000000000000000000e-01  7.06931988604973859935e-01  3.84910193034215808439e-05 2
5.12499999999999955591e-01  2.50000000000000000000e-01  7.06522563908226319818e-01  3.90635760871838044750e-05 2
5.18750000000000044409e-01  2.50000000000000000000e-01  7.05840761313605291605e-01  3.96210733338842047146e-05 2
5.25000000000000022204e-01  2.50000000000000000000e-01  7.04886843669321416783e-01  4.01632957858222283676e-05 2
5.31250000000000000000e-01  2.50000000000000000000e-01  7.03661178728467451293e-01  4.06900347237337811634e-05 2
5.37499999999999977796e-01  2.50000000000000000000e-01  7.02164239008648216611e-01  4.12010866411849363544e-05 2
5.43749999999999955591e-01  2.50000000000000000000e-01  7.00396601608340385603e-01  4.16962547988841691904e-05 2
5.50000000000000044409e-01  2.50000000000000000000e-01  6.98358947985370126510e-01  4.21753483400566508976e-05 2
5.56250000000000022204e-01  2.50000000000000000000e-01  6.96052063694041045494e-01  4.26381825218147270107e-05 2
5.62500000000000000000e-01  2.50000000000000000000e-01  6.93476838082359492432e-01  4.30845787141587166502e-05 2
5.68749999999999977796e-01  2.50000000000000000000e-01  6.90634263948551319068e-01  4.35143650920899460743e-05 2
5.74999999999999955591e-01  2.50000000000000000000e-01  6.87525437159076546756e-01  4.39273759439418043371e-05 2
5.81250000000000044409e-01  2.50000000000000000000e-01  6.84151556226134327510e-01  4.43234517537582917157e-05 2
5.87500000000000022204e-01  2.50000000000000000000e-01  6.80513921844726699106e-01  4.47024401493134604380e-05 2
5.93750000000000000000e-01  2.50000000000000000000e-01  6.76613936392318371382e-01  4.50641948579466600222e-05 2
5.99999999999999977796e-01  2.50000000000000000000e-01  6.72453103387450901174e-01  4.54085765063672042174e-05 2
6.06249999999999955591e-01  2.50000000000000000000e-01  6.68033026910615945759e-01  4.57354521657959978143e-05 2
6.12500000000000044409e-01  2.50000000000000000000e-01  6.63355410985201565666e-01  4.60446960529603543932e-05 2
6.18750000000000022204e-01  2.50000000000000000000e-01  6.58422058921224517825e-01  4.63361889139202176580e-05 2
6.25000000000000000000e-01  2.50000000000000000000e-01  6.53234872620089168649e-01  4.66098180990082155972e-05 2
6.31249999999999977796e-01  2.50000000000000000000e-01  6.47795851840551217826e-01  4.68654784253619283163e-05 2
6.37499999999999955591e-01  2.50000000000000000000e-01  6.42107093428812003566e-01  4.71030711766129428497e-05 2
6.43750000000000044409e-01  2.50000000000000000000e-01  6.36170790509447692251e-01  4.73225048379655177655e-05 2
6.50000000000000022204e-01  2.50000000000000000000e-01  6.29989231640386004862e-01  4.75236946644308488885e-05 2
6.56250000000000000000e-01  2.50000000000000000000e-01  6.23564799929954505231e-01  4.77065633810447309315e-05 2
6.62499999999999977796e-01  2.50000000000000000000e-01  6.16899972119268613646e-01  4.78710400921844581035e-05 2
6.68749999999999955591e-01  2.50000000000000000000e-01  6.09997317625848189948e-01  4.80170618607500543362e-05 2
6.75000000000000044409e-01  2.50000000000000000000e-01  6.02859497554867562741e-01  4.81445719234807611997e-05 2
6.81250000000000022204e-01  2.50000000000000000000e-01  5.95489263671522550680e-01  4.82535214390011901742e-05 2
6.87500000000000000000e-01  2.50000000000000000000e-01  5.87889457341301047144e-01  4.83438683783754541423e-05 2
6.93749999999999977796e-01  2.50000000000000000000e-01  5.80063008434466120811e-01  4.84155776570016627147e-05 2
6.99999999999999955591e-01  2.50000000000000000000e-01  5.72012934195833100404e-01  4.84686218511498623229e-05 2
7.06250000000000044409e-01  2.50000000000000000000e-01  5.63742338082241611907e-01  4.85029805309400430247e-05 2
7.12500000000000022204e-01  2.50000000000000000000e-01  5.55254408565960977384e-01  4.85186404208803878646e-05 2
7.18750000000000000000e-01  2.50000000000000000000e-01  5.46552417905550980137e-01  4.85155953278137985762e-05 2
7.24999999999999977796e-01  2.50000000000000000000e-01  5.37639720883788974071e-01  4.84938466974726978265e-05 2
7.31249999999999955591e-01  2.50000000000000000000e-01  5.28519753515363621688e-01  4.84534025889660213693e-05 2
7.37500000000000044409e-01  2.50000000000000000000e-01  5.19196031720915440744e-01  4.83942789801794504001e-05 2
7.43750000000000022204e-01  2.50000000000000000000e-01  5.09672149973128818523e-01  4.83164982177930468765e-05 2
7.50000000000000000000e-01  2.50000000000000000000e-01  4.99951779909294402593e-01  4.82200907055974070659e-05 2
7.56249999999999977796e-01  2.50000000000000000000e-01  4.90038668917296471594e-01  4.81050934217353010069e-05 2
7.62499999999999955591e-01  2.50000000000000000000e-01  4.79936638690222960868e-01  4.79715506043199013675e-05 2
7.68750000000000044409e-01  2.50000000000000000000e-01  4.69649583752790478197e-01  4.78195139727577434030e-05 2
7.75000000000000022204e-01  2.50000000000000000000e-01  4.59181469960791510676e-01  4.76490418500619128395e-05 2
7.81250000000000000000e-01  2.50000000000000000000e-01  4.48536332971019247040e-01  4.74602002988322446697e-05 2
7.87499999999999977796e-01  2.50000000000000000000e-01  4.37718276686764606875e-01  4.72530617798283536501e-05 2
7.93749999999999955591e-01  2.50000000000000000000e-01  4.26731471674371864999e-01  4.70277064327784266595e-05 2
8.00000000000000044409e-01  2.50000000000000000000e-01  4.15580153556639686485e-01  4.67842208137780879440e-05 2
8.06250000000000022204e-01  2.50000000000000000000e-01  4.04268621378564452229e-01  4.65226992040768116965e-05 2
8.12500000000000000000e-01  2.50000000000000000000e-01  3.92801235951437455185e-01  4.62432421135527960132e-05 2
8.18749999999999977796e-01  2.50000000000000000000e-01  3.81182418170582515415e-01  4.59459573284304312324e-05 2
8.24999999999999955591e-01  2.50000000000000000000e-01  3.69416647311252677177e-01  4.56309596328918765096e-05 2
8.31250000000000044409e-01  2.50000000000000000000e-01  3.57508459302343761799e-01  4.52983702071141358658e-05 2
8.37500000000000022204e-01  2.50000000000000000000e-01  3.45462444976788574102e-01  4.49483174978504429475e-05 2
8.43750000000000000000e-01  2.50000000000000000000e-01  3.33283248302632617577e-01  4.45809362407678655416e-05 2
8.49999999999999977796e-01  2.50000000000000000000e-01  3.20975564591809536807e-01  4.41963682935586632539e-05 2
8.56249999999999955591e-01  2.50000000000000000000e-01  3.08544138690857394636e-01  4.37947617351053253287e-05 2
8.62500000000000044409e-01  2.50000000000000000000e-01  2.95993763151016275881e-01  4.33762714792118586615e-05 2
8.68750000000000022204e-01  2.50000000000000000000e-01  2.83329276381011740948e-01  4.29410588153600336625e-05 2
8.75000000000000000000e-01  2.50000000000000000000e-01  2.70555560781448323215e-01  4.24892916502384032640e-05 2
8.81249999999999977796e-01  2.50000000000000000000e-01  2.57677540863007814576e-01  4.20211439896012173278e-05 2
8.87499999999999955591e-01  2.50000000000000000000e-01  2.44700181347473871840e-01  4.15367963529367223430e-05 2
8.93750000000000044409e-01  2.50000000000000000000e-01  2.31628485253883270589e-01  4.10364355562520266574e-05 2
9.00000000000000022204e-01  2.50000000000000000000e-01  2.18467491970028820925e-01  4.05202543817539950766e-05 2
9.06250000000000000000e-01  2.50000000000000000000e-01  2.05222275309288243461e-01  3.99884518904325414468e-05 2
9.12499999999999977796e-01  2.50000000000000000000e-01  1.91897941554851819701e-01  3.94412330694815516097e-05 2
9.18749999999999955591e-01  2.50000000000000000000e-01  1.78499627490939810626e-01  3.88788089639435785472e-05 2
9.25000000000000044409e-01  2.50000000000000000000e-01  1.65032498422773704627e-01  3.83013962980405242575e-05 2
9.31250000000000022204e-01  2.50000000000000000000e-01  1.51501746184946856078e-01  3.77092176962745551094e-05 2
9.37500000000000000000e-01  2.50000000000000000000e-01  1.37912587139950026938e-01  3.71025015216963627296e-05 2
9.43749999999999977796e-01  2.50000000000000000000e-01  1.24270260167369556159e-01  3.64814815812658510552e-05 2
9.49999999999999955591e-01  2.50000000000000000000e-01  1.10580024643866126066e-01  3.58463973710865246858e-05 2
9.56250000000000044409e-01  2.50000000000000000000e-01  9.68471584159251858148e-02  3.51974936426691087377e-05 2
9.62500000000000022204e-01  2.50000000000000000000e-01  8.30769557648076278911e-02  3.45350206477634813496e-05 2
9.68750000000000000000e-01  2.50000000000000000000e-01  6.92747253657892136935e-02  3.38592337566639978164e-05 2
9.74999999999999977796e-01  2.50000000000000000000e-01  5.54457882414697914020e-02  3.31703934539351319444e-05 2
9.81249999999999955591e-01  2.50000000000000000000e-01  4.15954757103000546947e-02  3.24687653577918067249e-05 2
9.87500000000000044409e-01  2.50000000000000000000e-01  2.77291273314548662732e-02  3.17546199169564669074e-05 2
9.93750000000000022204e-01  2.50000000000000000000e-01  1.38670461381049017063e-02  1.60709405367248647778e-05 2
1.00000000000000000000e+00  2.50000000000000000000e-01  0.00000000000000000000e+00  8.65956056235493162558e-17 2
0.00000000000000000000e+00  2.56249999999999977796e-01  0.00000000000000000000e+00  0.00000000000000000000e+00 2
6.25000000000000034694e-03  2.56249999999999977796e-01  1.41672820483410896036e-02  1.42642215382009218683e-05 2
1.25000000000000006939e-02  2.56249999999999977796e-01  2.83287288294472271166e-02  2.81494336286901292166e-05 2
1.87499999999999993061e-02  2.56249999999999977796e-01  4.24645936044177607638e-02  2.73630516668260659330e-05 2
2.50000000000000013878e-02  2.56249999999999977796e-01  5.65840874702033050370e-02  2.65661207276765565233e-05 2
3.12500000000000000000e-02  2.56249999999999977796e-01  7.06817670931412511681e-02  2.57589480427838912746e-05 2
3.74999999999999986122e-02  2.56249999999999977796e-01  8.47521975493771978494e-02  2.49418447944432797314e-05 2
4.37499999999999972244e-02  2.56249999999999977796e-01  9.87899544201238655194e-02  2.41151259879890389470e-05 2
5.00000000000000027756e-02  2.56249999999999977796e-01  1.12789625882891847430e-01  2.32791103444290881086e-05 2
5.62500000000000013878e-02  2.56249999999999977796e-01  1.26745814797831285459e-01  2.24341201587041627619e-05 2
6.25000000000000000000e-02  2.56249999999999977796e-01  1.40653140788446873177e-01  2.15804811902198245832e-05 2
6.87500000000000055511e-02  2.56249999999999977796e-01  1.54506242315839009693e-01  2.07185225408190731855e-05 2
7.49999999999999972244e-02  2.56249999999999977796e-01  1.68299778745651495981e-01  1.98485765005584902099e-05 2
8.12500000000000027756e-02  2.56249999999999977796e-01  1.82028432407032647600e-01  1.89709784640390566324e-05 2
8.74999999999999944489e-02  2.56249999999999977796e-01  1.95686910642639211311e-01  1.80860667421400833632e-05 2
9.37500000000000000000e-02  2.56249999999999977796e-01  2.09269947849133969298e-01  1.71941825088672839428e-05 2
1.00000000000000005551e-01  2.56249999999999977796e-01  2.22772307507096090085e-01  1.62956695896609993213e-05 2
1.06249999999999997224e-01  2.56249999999999977796e-01  2.36188784199843848643e-01  1.53908743740216458207e-05 2
1.12500000000000002776e-01  2.56249999999999977796e-01  2.49514205620234158500e-01  1.44801456939402939383e-05 2
1.18749999999999994449e-01  2.56249999999999977796e-01  2.62743434564620292893e-01  1.35638346245858798511e-05 2
1.25000000000000000000e-01  2.56249999999999977796e-01  2.75871370913449653894e-01  1.26422944565773853753e-05 2
1.31250000000000005551e-01  2.56249999999999977796e-01  2.88892953597319812609e-01  1.17158804229799962116e-05 2
1.37500000000000011102e-01  2.56249999999999977796e-01  3.01803162548267611687e-01  1.07849497125722670887e-05 2
1.43749999999999988898e-01  2.56249999999999977796e-01  3.14597020634952873053e-01  9.84986118457431558681e-06 2
1.49999999999999994449e-01  2.56249999999999977796e-01  3.27269595581590522215e-01  8.91097538274765454958e-06 2
1.56250000000000000000e-01  2.56249999999999977796e-01  3.39816001869210015940e-01  7.96865417040937273896e-06 2
1.62500000000000005551e-01  2.56249999999999977796e-01  3.52231402619464506465e-01  7.02326093915406346468e-06 2
1.68750000000000011102e-01  2.56249999999999977796e-01  3.64511011458958755771e-01  6.07516008788167027888e-06 2
1.74999999999999988898e-01  2.56249999999999977796e-01  3.76650094364762322297e-01  5.12471715791162907294e-06 2
1.81249999999999994449e-01  2.56249999999999977796e-01  3.88643971489295136923e-01  4.17229852106570930914e-06 2
1.87500000000000000000e-01  2.56249999999999977796e-01  4.00488018964685887902e-01  3.21827142701902602084e-06 2
1.93750000000000005551e-01  2.56249999999999977796e-01  4.12177670685097308212e-01  2.26300359756903546327e-06 2
2.00000000000000011102e-01  2.56249999999999977796e-01  4.23708420067316959834e-01  1.30686335519936136507e-06 2
2.06249999999999988898e-01  2.56249999999999977796e-01  4.35075821787943683994e-01  3.50219293676623522060e-07 2
2.12499999999999994449e-01  2.56249999999999977796e-01  4.46275493497182373925e-01  6.06559825866437307695e-07 2
2.18750000000000000000e-01  2.56249999999999977796e-01  4.57303117508504886057e-01  1.56310503574008663463e-06 2
2.25000000000000005551e-01  2.56249999999999977796e-01  4.68154442462810682635e-01  2.51904769316135812574e-06 2
2.31250000000000011102e-01  2.56249999999999977796e-01  4.78825284967859088336e-01  3.47401917055734088535e-06 2
2.37499999999999988898e-01  2.56249999999999977796e-01  4.89311531210678385406e-01  4.42765136532408121184e-06 2
2.43749999999999994449e-01  2.56249999999999977796e-01  4.99609138543705699753e-01  5.37957665569521736870e-06 2
2.50000000000000000000e-01  2.56249999999999977796e-01  5.09714137043406623206e-01  6.32942793987734120265e-06 2
2.56249999999999977796e-01  2.56249999999999977796e-01  5.19622631040324911567e-01  7.27683920931365690876e-06 2
2.62500000000000011102e-01  2.56249999999999977796e-01  5.29330800621661712313e-01  8.22144496515075928755e-06 2
2.68749999999999988898e-01  2.56249999999999977796e-01  5.38834903102877627035e-01  9.16288140617727009385e-06 2
2.75000000000000022204e-01  2.56249999999999977796e-01  5.48131274471941210003e-01  1.01007851970313922152e-05 2
2.81250000000000000000e-01  2.56249999999999977796e-01  5.57216330800401449252e-01  1.10347950813549644522e-05 2
2.87499999999999977796e-01  2.56249999999999977796e-01  5.66086569626381819198e-01  1.19645507005161633174e-05 2
2.93750000000000011102e-01  2.56249999999999977796e-01  5.74738571303659240286e-01  1.28896939192157944376e-05 2
2.99999999999999988898e-01  2.56249999999999977796e-01  5.83169000321214880955e-01  1.38098677509024270194e-05 2
3.06250000000000022204e-01  2.56249999999999977796e-01  5.91374606587937168278e-01  1.47247176958131831270e-05 2
3.12500000000000000000e-01  2.56249999999999977796e-01  5.99352226686486466711e-01  1.56338909846898133083e-05 2
3.18749999999999977796e-01  2.56249999999999977796e-01  6.07098785092453741008e-01  1.65370371140172167657e-05 2
3.25000000000000011102e-01  2.56249999999999977796e-01  6.14611295360102727336e-01  1.74338079124147782295e-05 2
3.31249999999999988898e-01  2.56249999999999977796e-01  6.21886861273775792824e-01  1.83238575994781882628e-05 2
3.37500000000000022204e-01  2.56249999999999977796e-01  6.28922677964185217192e-01  1.92068431758007918120e-05 2
3.43750000000000000000e-01  2.56249999999999977796e-01  6.35716032990293222760e-01  2.00824240039754187137e-05 2
3.49999999999999977796e-01  2.56249999999999977796e-01  6.42264307384091792663e-01  2.09502628593094541998e-05 2
3.56250000000000011102e-01  2.56249999999999977796e-01  6.48564976661518910461e-01  2.18100248042807365323e-05 2
3.62499999999999988898e-01  2.56249999999999977796e-01  6.54615611794353347008e-01  2.26613786603602207492e-05 2
3.68750000000000022204e-01  2.56249999999999977796e-01  6.60413880147617482486e-01  2.35039961694605281650e-05 2
3.75000000000000000000e-01  2.56249999999999977796e-01  6.65957546378618037153e-01  2.43375523540922955590e-05 2
3.81249999999999977796e-01  2.56249999999999977796e-01  6.71244473298345578627e-01  2.51617260116354657384e-05 2
3.87500000000000011102e-01  2.56249999999999977796e-01  6.76272622695991754149e-01  2.59761992471574387764e-05 2
3.93749999999999988898e-01  2.56249999999999977796e-01  6.81040056123973447377e-01  2.67806583404972542439e-05 2
4.00000000000000022204e-01  2.56249999999999977796e-01  6.85544935646326014655e-01  2.75747927833691619526e-05 2
4.06250000000000000000e-01  2.56249999999999977796e-01  6.89785524545906914007e-01  2.83582967544049324715e-05 2
4.12499999999999977796e-01  2.56249999999999977796e-01  6.93760187995183685850e-01  2.91308679860602381950e-05 2
4.18750000000000011102e-01  2.56249999999999977796e-01  6.97467393685623604505e-01  2.98922087492714538826e-05 2
4.24999999999999988898e-01  2.56249999999999977796e-01  7.00905712418893211968e-01  3.06420255027362031797e-05 2
4.31250000000000022204e-01  2.56249999999999977796e-01  7.04073818657636629759e-01  3.13800292105481659632e-05 2
4.37500000000000000000e-01  2.56249999999999977796e-01  7.06970491036732484602e-01  3.21059352168528988614e-05 2
4.43749999999999977796e-01  2.56249999999999977796e-01  7.09594612833676419150e-01  3.28194638326007037676e-05 2
4.50000000000000011102e-01  2.56249999999999977796e-01  7.11945172399596537538e-01  3.35203399459693685003e-05 2
4.56249999999999988898e-01  2.56249999999999977796e-01  7.14021263549144968863e-01  3.42082932456300170543e-05 2
4.62500000000000022204e-01  2.56249999999999977796e-01  7.15822085909476046872e-01  3.48830587001414116344e-05 2
4.68750000000000000000e-01  2.56249999999999977796e-01  7.17346945229560328805e-01  3.55443759038065465461e-05 2
4.74999999999999977796e-01  2.56249999999999977796e-01  7.18595253646597043051e-01  3.61919904121599245173e-05 2
4.81250000000000011102e-01  2.56249999999999977796e-01  7.19566529914690278247e-01  3.68256517959686391350e-05 2
4.87499999999999988898e-01  2.56249999999999977796e-01  7.20260399587652089259e-01  3.74451164640854372578e-05 2
4.93750000000000022204e-01  2.56249999999999977796e-01  7.20676595165829603218e-01  3.80501452867942902003e-05 2
5.00000000000000000000e-01  2.56249999999999977796e-01  7.20814956197842526819e-01  3.86405050761817747684e-05 2
5.06249999999999977796e-01  2.56249999999999977796e-01  7.20675429343179407837e-01  3.92159679369896707612e-05 2
5.12499999999999955591e-01  2.56249999999999977796e-01  7.20258068391313344137e-01  3.97763128028305601447e-05 2
5.18750000000000044409e-01  2.56249999999999977796e-01  7.19563034243804522383e-01  4.03213226817245029565e-05 2
5.25000000000000022204e-01  2.56249999999999977796e-01  7.18590594848704133923e-01  4.08507883050690523419e-05 2
5.31250000000000000000e-01  2.56249999999999977796e-01  7.17341125100763310485e-01  4.13645047009358890477e-05 2
5.37499999999999977796e-01  2.56249999999999977796e-01  7.15815106693419522799e-01  4.18622747566654851425e-05 2
5.43749999999999955591e-01  2.56249999999999977796e-01  7.14013127936486968750e-01  4.23439059036301301830e-05 2
5.50000000000000044409e-01  2.56249999999999977796e-01  7.11935883527001545090e-01  4.28092125408507939710e-05 2
5.56250000000000022204e-01  2.56249999999999977796e-01  7.09584174281760904357e-01  4.32580157481154969901e-05 2
5.62500000000000000000e-01  2.56249999999999977796e-01  7.06958906830081446060e-01  4.36901418678914410521e-05 2
5.68749999999999977796e-01  2.56249999999999977796e-01  7.04061093262066117759e-01  4.41054247810601651736e-05 2
5.74999999999999955591e-01  2.56249999999999977796e-01  7.00891850740476995973e-01  4.45037039189521976823e-05 2
5.81250000000000044409e-01  2.56249999999999977796e-01  6.97452401067849447891e-01  4.48848265234280674463e-05 2
5.87500000000000022204e-01  2.56249999999999977796e-01  6.93744070218523023463e-01  4.52486446467226244295e-05 2
5.93750000000000000000e-01  2.56249999999999977796e-01  6.89768287823655956714e-01  4.55950190053622250730e-05 2
5.99999999999999977796e-01  2.56249999999999977796e-01  6.85526586623702471890e-01  4.59238154070229498416e-05 2
6.06249999999999955591e-01  2.56249999999999977796e-01  6.81020601875049202967e-01  4.62349072647416647897e-05 2
6.12500000000000044409e-01  2.56249999999999977796e-01  6.76252070720430475959e-01  4.65281748083246071701e-05 2
6.18750000000000022204e-01  2.56249999999999977796e-01  6.71222831519780682719e-01  4.68035045766423962732e-05 2
6.25000000000000000000e-01  2.56249999999999977796e-01  6.65934823139799791925e-01  4.70607911723375238466e-05 2
6.31249999999999977796e-01  2.56249999999999977796e-01  6.60390084209273253713e-01  4.72999345136893012409e-05 2
6.37499999999999955591e-01  2.56249999999999977796e-01  6.54590752329917813235e-01  4.75208430961160388506e-05 2