Titile = 'Poisson'  
VARIABLES = X, Y, U, Error, Rank 
zone N= 6601, E = 12800
DATAPACKING=POINT, ZONETYPE=FETRIANGLE
0.00000000000000000000e+00  5.00000000000000000000e-01  0.00000000000000000000e+00  0.00000000000000000000e+00 2
6.25000000000000034694e-03  5.00000000000000000000e-01  1.96326411574791470649e-02  1.05130314915352629512e-06 2
1.25000000000000006939e-02  5.00000000000000000000e-01  3.92577135580678068805e-02  2.10220100080316107949e-06 2
1.87499999999999993061e-02  5.00000000000000000000e-01  5.88676513627748032587e-02  3.15228841422932060112e-06 2
2.50000000000000013878e-02  5.00000000000000000000e-01  7.84548945672847580779e-02  4.20116056018549066664e-06 2
3.12500000000000000000e-02  5.00000000000000000000e-01  9.80118919164817831158e-02  5.24841307882051300027e-06 2
3.74999999999999986122e-02  5.00000000000000000000e-01  1.17531103815603180096e-01  6.29364223446449155830e-06 2
4.37499999999999972244e-02  5.00000000000000000000e-01  1.37005005236896876264e-01  7.33644507114328270347e-06 2
5.00000000000000027756e-02  5.00000000000000000000e-01  1.56426088620662123718e-01  8.37641956874524140630e-06 2
5.62500000000000013878e-02  5.00000000000000000000e-01  1.75786866769557709178e-01  9.41316479680098794347e-06 2
6.25000000000000000000e-02  5.00000000000000000000e-01  1.95079875735057556296e-01  1.04462810706917874626e-05 2
6.87500000000000055511e-02  5.00000000000000000000e-01  2.14297677694946397953e-01  1.14753701043746048072e-05 2
7.49999999999999972244e-02  5.00000000000000000000e-01  2.33432863820740604810e-01  1.25000351647863716664e-05 2
8.12500000000000027756e-02  5.00000000000000000000e-01  2.52478057133935451795e-01  1.35198812225012510169e-05 2
8.74999999999999944489e-02  5.00000000000000000000e-01  2.71425915349963686740e-01  1.45345151105757963705e-05 2
9.37500000000000000000e-02  5.00000000000000000000e-01  2.90269133708796867044e-01  1.55435456654640091756e-05 2
1.00000000000000005551e-01  5.00000000000000000000e-01  3.09000447791060006697e-01  1.65465838873890547234e-05 2
1.06249999999999997224e-01  5.00000000000000000000e-01  3.27612636318607375330e-01  1.75432430861155452817e-05 2
1.12500000000000002776e-01  5.00000000000000000000e-01  3.46098523938462465654e-01  1.85331390304965815119e-05 2
1.18749999999999994449e-01  5.00000000000000000000e-01  3.64450983989051791045e-01  1.95158900978542604321e-05 2
1.25000000000000000000e-01  5.00000000000000000000e-01  3.82662941247671917200e-01  2.04911174178645794086e-05 2
1.31250000000000005551e-01  5.00000000000000000000e-01  4.00727374658120361062e-01  2.14584450206056764898e-05 2
1.37500000000000011102e-01  5.00000000000000000000e-01  4.18637320037442084431e-01  2.24174999860493606718e-05 2
1.43749999999999988898e-01  5.00000000000000000000e-01  4.36385872760764681466e-01  2.33679125773433860047e-05 2
1.49999999999999994449e-01  5.00000000000000000000e-01  4.53966190423152171629e-01  2.43093163945773405032e-05 2
1.56250000000000000000e-01  5.00000000000000000000e-01  4.71371495477491353476e-01  2.52413485062885634136e-05 2
1.62500000000000005551e-01  5.00000000000000000000e-01  4.88595077847355896417e-01  2.61636495990091866304e-05 2
1.68750000000000011102e-01  5.00000000000000000000e-01  5.05630297513879001237e-01  2.70758641055524051922e-05 2
1.74999999999999988898e-01  5.00000000000000000000e-01  5.22470587075597237003e-01  2.79776403515619165319e-05 2
1.81249999999999994449e-01  5.00000000000000000000e-01  5.39109454280315203434e-01  2.88686306849639251482e-05 2
1.87500000000000000000e-01  5.00000000000000000000e-01  5.55540484527989875119e-01  2.97484916123025300294e-05 2
1.93750000000000005551e-01  5.00000000000000000000e-01  5.71757343343683333003e-01  3.06168839289133742909e-05 2
2.00000000000000011102e-01  5.00000000000000000000e-01  5.87753778819618988294e-01  3.14734728541488095743e-05 2
2.06249999999999988898e-01  5.00000000000000000000e-01  6.03523624025415372785e-01  3.23179281560559417130e-05 2
2.12499999999999994449e-01  5.00000000000000000000e-01  6.19060799385552251728e-01  3.31499242817168138231e-05 2
2.18750000000000000000e-01  5.00000000000000000000e-01  6.34359315023164671565e-01  3.39691404808162289441e-05 2
2.25000000000000005551e-01  5.00000000000000000000e-01  6.49413273069253560443e-01  3.47752609300977510998e-05 2
2.31250000000000011102e-01  5.00000000000000000000e-01  6.64216869936428366827e-01  3.55679748533788142595e-05 2
2.37499999999999988898e-01  5.00000000000000000000e-01  6.78764398556295223131e-01  3.63469766464508126091e-05 2
2.43749999999999994449e-01  5.00000000000000000000e-01  6.93050250579647642013e-01  3.71119659882124253159e-05 2
2.50000000000000000000e-01  5.00000000000000000000e-01  7.07068918538587221079e-01  3.78626479602406362801e-05 2
2.56249999999999977796e-01  5.00000000000000000000e-01  7.20814997969756676710e-01  3.85987331620318840919e-05 2
2.62500000000000011102e-01  5.00000000000000000000e-01  7.34283189497870969475e-01  3.93199378145858702283e-05 2
2.68749999999999988898e-01  5.00000000000000000000e-01  7.47468300878713409752e-01  4.00259838833072478792e-05 2
2.75000000000000022204e-01  5.00000000000000000000e-01  7.60365249000854892536e-01  4.07165991761493373247e-05 2
2.81250000000000000000e-01  5.00000000000000000000e-01  7.72969061845294236335e-01  4.13915174427570420335e-05 2
2.87499999999999977796e-01  5.00000000000000000000e-01  7.85274880402254571443e-01  4.20504784902631101318e-05 2
2.93750000000000011102e-01  5.00000000000000000000e-01  7.97277960544427788392e-01  4.26932282793224260331e-05 2
2.99999999999999988898e-01  5.00000000000000000000e-01  8.08973674855930191541e-01  4.33195190172597222045e-05 2
3.06250000000000022204e-01  5.00000000000000000000e-01  8.20357514416258037926e-01  4.39291092556581830308e-05 2
3.12500000000000000000e-01  5.00000000000000000000e-01  8.31425090538561506470e-01  4.45217639837292011862e-05 2
3.18749999999999977796e-01  5.00000000000000000000e-01  8.42172136461560194576e-01  4.50972547262340484053e-05 2
3.25000000000000011102e-01  5.00000000000000000000e-01  8.52594508994472977115e-01  4.56553596192010857635e-05 2
3.31249999999999988898e-01  5.00000000000000000000e-01  8.62688190114291653110e-01  4.61958635000758732758e-05 2
3.37500000000000022204e-01  5.00000000000000000000e-01  8.72449288514800302963e-01  4.67185579967610564722e-05 2
3.43750000000000000000e-01  5.00000000000000000000e-01  8.81874041106754269492e-01  4.72232416006690414179e-05 2
3.49999999999999977796e-01  5.00000000000000000000e-01  8.90958814468622350979e-01  4.77097197454368071590e-05 2
3.56250000000000011102e-01  5.00000000000000000000e-01  8.99700106247336206522e-01  4.81778048853076512614e-05 2
3.62499999999999988898e-01  5.00000000000000000000e-01  9.08094546508517841410e-01  4.86273165634099058252e-05 2
3.68750000000000022204e-01  5.00000000000000000000e-01  9.16138899035649600933e-01  4.90580814863639247392e-05 2
3.75000000000000000000e-01  5.00000000000000000000e-01  9.23830062577702393334e-01  4.94699335843451493133e-05 2
3.81249999999999977796e-01  5.00000000000000000000e-01  9.31165072044723096667e-01  4.98627140803620250153e-05 2
3.87500000000000011102e-01  5.00000000000000000000e-01  9.38141099650932841492e-01  5.02362715513182678251e-05 2
3.93749999999999988898e-01  5.00000000000000000000e-01  9.44755456004893079403e-01  5.05904619848562830953e-05 2
4.00000000000000022204e-01  5.00000000000000000000e-01  9.51005591146321771490e-01  5.09251488317596923139e-05 2
4.06250000000000000000e-01  5.00000000000000000000e-01  9.56889095529146804786e-01  5.12402030621306181501e-05 2
4.12499999999999977796e-01  5.00000000000000000000e-01  9.62403700950425711191e-01  5.15355032215669695006e-05 2
4.18750000000000011102e-01  5.00000000000000000000e-01  9.67547281424798066851e-01  5.18109354616935746662e-05 2
4.24999999999999988898e-01  5.00000000000000000000e-01  9.72317854004076331798e-01  5.20663936002252469848e-05 2
4.31250000000000022204e-01  5.00000000000000000000e-01  9.76713579541719889576e-01  5.23017791526081410325e-05 2
4.37500000000000000000e-01  5.00000000000000000000e-01  9.80732763401855223151e-01  5.25170013752074282820e-05 2
4.43749999999999977796e-01  5.00000000000000000000e-01  9.84373856112600420509e-01  5.27119772911754935762e-05 2
4.50000000000000011102e-01  5.00000000000000000000e-01  9.87635453963399245758e-01  5.28866317385245920946e-05 2
4.56249999999999988898e-01  5.00000000000000000000e-01  9.90516299546194134429e-01  5.30408973831164587409e-05 2
4.62500000000000022204e-01  5.00000000000000000000e-01  9.93015282240174657069e-01  5.31747147516359319752e-05 2
4.68750000000000000000e-01  5.00000000000000000000e-01  9.95131438639943022295e-01  5.32880322537954143058e-05 2
4.74999999999999977796e-01  5.00000000000000000000e-01  9.96863952926921093045e-01  5.33808062068708011338e-05 2
4.81250000000000011102e-01  5.00000000000000000000e-01  9.98212157183874460031e-01  5.34530008414746404810e-05 2
4.87499999999999988898e-01  5.00000000000000000000e-01  9.99175531652395254589e-01  5.35045883276463740685e-05 2
4.93750000000000022204e-01  5.00000000000000000000e-01  9.99753704933289411017e-01  5.35355487754074488294e-05 2
5.00000000000000000000e-01  5.00000000000000000000e-01  9.99946454129748918405e-01  5.35458702510815953701e-05 2
5.06249999999999977796e-01  5.00000000000000000000e-01  9.99753704933291520440e-01  5.35355487732980250826e-05 2
5.12499999999999955591e-01  5.00000000000000000000e-01  9.99175531652398918325e-01  5.35045883239826380873e-05 2
5.18750000000000044409e-01  5.00000000000000000000e-01  9.98212157183879345013e-01  5.34530008365896591727e-05 2
5.25000000000000022204e-01  5.00000000000000000000e-01  9.96863952926928753584e-01  5.33808061992102622639e-05 2
5.31250000000000000000e-01  5.00000000000000000000e-01  9.95131438639951793057e-01  5.32880322451356747138e-05 2
5.37499999999999977796e-01  5.00000000000000000000e-01  9.93015282240186203389e-01  5.31747147400896125191e-05 2
5.43749999999999955591e-01  5.00000000000000000000e-01  9.90516299546206790971e-01  5.30408973704599162602e-05 2
5.50000000000000044409e-01  5.00000000000000000000e-01  9.87635453963412346390e-01  5.28866317253129381015e-05 2
5.56250000000000022204e-01  5.00000000000000000000e-01  9.84373856112615519542e-01  5.27119772760764604413e-05 2
5.62500000000000000000e-01  5.00000000000000000000e-01  9.80732763401871876496e-01  5.25170013585540829126e-05 2
5.68749999999999977796e-01  5.00000000000000000000e-01  9.76713579541739207457e-01  5.23017791332902604040e-05 2
5.74999999999999955591e-01  5.00000000000000000000e-01  9.72317854004097092968e-01  5.20663935795750987268e-05 2
5.81250000000000044409e-01  5.00000000000000000000e-01  9.67547281424820271312e-01  5.18109354394891141737e-05 2
5.87500000000000022204e-01  5.00000000000000000000e-01  9.62403700950452467566e-01  5.15355031948105946071e-05 2
5.93750000000000000000e-01  5.00000000000000000000e-01  9.56889095529171895826e-01  5.12402030370395777936e-05 2
5.99999999999999977796e-01  5.00000000000000000000e-01  9.51005591146351858534e-01  5.09251488017836706490e-05 2
6.06249999999999955591e-01  5.00000000000000000000e-01  9.44755456004922167246e-01  5.05904619558794621526e-05 2
6.12500000000000044409e-01  5.00000000000000000000e-01  9.38141099650963816714e-01  5.02362715202320231356e-05 2
6.18750000000000022204e-01  5.00000000000000000000e-01  9.31165072044756514380e-01  4.98627140470553342766e-05 2
6.25000000000000000000e-01  5.00000000000000000000e-01  9.23830062577737365359e-01  4.94699335493731240376e-05 2
6.31249999999999977796e-01  5.00000000000000000000e-01  9.16138899035687237493e-01  4.90580814487273642044e-05 2
6.37499999999999955591e-01  5.00000000000000000000e-01  9.08094546508558364550e-01  4.86273165231088100313e-05 2
6.43750000000000044409e-01  5.00000000000000000000e-01  8.99700106247377617841e-01  4.81778048437853101404e-05 2
6.50000000000000022204e-01  5.00000000000000000000e-01  8.90958814468664983544e-01  4.77097197029152653158e-05 2
6.56250000000000000000e-01  5.00000000000000000000e-01  8.81874041106799233525e-01  4.72232415558160312230e-05 2
6.62499999999999977796e-01  5.00000000000000000000e-01  8.72449288514842935527e-01  4.67185579543505369315e-05 2
6.68749999999999955591e-01  5.00000000000000000000e-01  8.62688190114338282477e-01  4.61958634536685508465e-05 2
6.75000000000000044409e-01  5.00000000000000000000e-01  8.52594508994519273415e-01  4.56553595730158079391e-05 2
6.81250000000000022204e-01  5.00000000000000000000e-01  8.42172136461607379054e-01  4.50972546791605921612e-05 2
6.87500000000000000000e-01  5.00000000000000000000e-01  8.31425090538610467306e-01  4.45217639349904104051e-05 2
6.93749999999999977796e-01  5.00000000000000000000e-01  8.20357514416305111382e-01  4.39291092085847267867e-05 2
6.99999999999999955591e-01  5.00000000000000000000e-01  8.08973674855978375220e-01  4.33195189690760429357e-05 2
7.06250000000000044409e-01  5.00000000000000000000e-01  7.97277960544475750027e-01  4.26932282313607913693e-05 2
7.12500000000000022204e-01  5.00000000000000000000e-01  7.85274880402301089788e-01  4.20504784437447654000e-05 2
7.18750000000000000000e-01  5.00000000000000000000e-01  7.72969061845342864103e-01  4.13915173942402958573e-05 2
7.24999999999999977796e-01  5.00000000000000000000e-01  7.60365249000904519505e-01  4.07165991265223681239e-05 2
7.31249999999999955591e-01  5.00000000000000000000e-01  7.47468300878758595829e-01  4.00259838384542376843e-05 2
7.37500000000000044409e-01  5.00000000000000000000e-01  7.34283189497918153954e-01  3.93199377672903693792e-05 2
7.43750000000000022204e-01  5.00000000000000000000e-01  7.20814997969802861988e-01  3.85987331160686508724e-05 2
7.50000000000000000000e-01  5.00000000000000000000e-01  7.07068918538633850446e-01  3.78626479137222915483e-05 2
7.56249999999999977796e-01  5.00000000000000000000e-01  6.93050250579694826492e-01  3.71119659410279467693e-05 2
7.62499999999999955591e-01  5.00000000000000000000e-01  6.78764398556338077739e-01  3.63469766039292707660e-05 2
7.68750000000000044409e-01  5.00000000000000000000e-01  6.64216869936472775748e-01  3.55679748087478486696e-05 2
7.75000000000000022204e-01  5.00000000000000000000e-01  6.49413273069297192208e-01  3.47752608865770085345e-05 2
7.81250000000000000000e-01  5.00000000000000000000e-01  6.34359315023205749817e-01  3.39691404397379770330e-05 2
7.87499999999999977796e-01  5.00000000000000000000e-01  6.19060799385593774069e-01  3.31499242404165173070e-05 2
7.93749999999999955591e-01  5.00000000000000000000e-01  6.03523624025459115572e-01  3.23179281124241768453e-05 2
8.00000000000000044409e-01  5.00000000000000000000e-01  5.87753778819659178367e-01  3.14734728140697583854e-05 2
8.06250000000000022204e-01  5.00000000000000000000e-01  5.71757343343725410456e-01  3.06168838868359216576e-05 2
8.12500000000000000000e-01  5.00000000000000000000e-01  5.55540484528031397460e-01  2.97484915707801889084e-05 2
8.18749999999999977796e-01  5.00000000000000000000e-01  5.39109454280352728972e-01  2.88686306476604315208e-05 2
8.24999999999999955591e-01  5.00000000000000000000e-01  5.22470587075635872765e-01  2.79776403130371775774e-05 2
8.31250000000000044409e-01  5.00000000000000000000e-01  5.05630297513913640195e-01  2.70758640709134468239e-05 2
8.37500000000000022204e-01  5.00000000000000000000e-01  4.88595077847393366444e-01  2.61636495614836483981e-05 2
8.43750000000000000000e-01  5.00000000000000000000e-01  4.71371495477528157370e-01  2.52413484697067147522e-05 2
8.49999999999999977796e-01  5.00000000000000000000e-01  4.53966190423186699565e-01  2.43093163601604267399e-05 2
8.56249999999999955591e-01  5.00000000000000000000e-01  4.36385872760799820025e-01  2.33679125426489164852e-05 2
8.62500000000000044409e-01  5.00000000000000000000e-01  4.18637320037476112766e-01  2.24174999518544915134e-05 2
8.68750000000000022204e-01  5.00000000000000000000e-01  4.00727374658149670950e-01  2.14584449915178332446e-05 2
8.75000000000000000000e-01  5.00000000000000000000e-01  3.82662941247705223891e-01  2.04911173846689109723e-05 2
8.81249999999999977796e-01  5.00000000000000000000e-01  3.64450983989083543424e-01  1.95158900661018819278e-05 2
8.87499999999999955591e-01  5.00000000000000000000e-01  3.46098523938488722429e-01  1.85331390045728738869e-05 2
8.93750000000000044409e-01  5.00000000000000000000e-01  3.27612636318636130106e-01  1.75432430571942354902e-05 2
9.00000000000000022204e-01  5.00000000000000000000e-01  3.09000447791084320581e-01  1.65465838631861927865e-05 2
9.06250000000000000000e-01  5.00000000000000000000e-01  2.90269133708823012796e-01  1.55435456393737680969e-05 2
9.12499999999999977796e-01  5.00000000000000000000e-01  2.71425915349988555736e-01  1.45345150860398675263e-05 2
9.18749999999999955591e-01  5.00000000000000000000e-01  2.52478057133955879898e-01  1.35198812022951919687e-05 2
9.25000000000000044409e-01  5.00000000000000000000e-01  2.33432863820762365181e-01  1.25000351431647782618e-05 2
9.31250000000000022204e-01  5.00000000000000000000e-01  2.14297677694966104411e-01  1.14753700846403905445e-05 2
9.37500000000000000000e-01  5.00000000000000000000e-01  1.95079875735073487997e-01  1.04462810551209095422e-05 2
9.43749999999999977796e-01  5.00000000000000000000e-01  1.75786866769573835168e-01  9.41316478089704311571e-06 2
9.49999999999999955591e-01  5.00000000000000000000e-01  1.56426088620676778662e-01  8.37641955420131978372e-06 2
9.56250000000000044409e-01  5.00000000000000000000e-01  1.37005005236906257648e-01  7.33644506178965372101e-06 2
9.62500000000000022204e-01  5.00000000000000000000e-01  1.17531103815613963137e-01  6.29364222358430591697e-06 2
9.68750000000000000000e-01  5.00000000000000000000e-01  9.80118919164881391426e-02  5.24841307268653078921e-06 2
9.74999999999999977796e-01  5.00000000000000000000e-01  7.84548945672923631056e-02  4.20116055270536303823e-06 2
9.81249999999999955591e-01  5.00000000000000000000e-01  5.88676513627817282748e-02  3.15228840776227148268e-06 2
9.87500000000000044409e-01  5.00000000000000000000e-01  3.92577135580689032257e-02  2.10220099960273243411e-06 2
9.93750000000000022204e-01  5.00000000000000000000e-01  1.96326411574812148553e-02  1.05130314731818885754e-06 2
1.00000000000000000000e+00  5.00000000000000000000e-01  0.00000000000000000000e+00  1.22464679914735320717e-16 2
0.00000000000000000000e+00  5.06249999999999977796e-01  0.00000000000000000000e+00  0.00000000000000000000e+00 2
6.25000000000000034694e-03  5.06249999999999977796e-01  1.96288410804552164446e-02  1.06679907908510673842e-06 2
1.25000000000000006939e-02  5.06249999999999977796e-01  3.92501155012428826208e-02  2.13255466578743391182e-06 2
1.87499999999999993061e-02  5.06249999999999977796e-01  5.88562588715657933336e-02  3.19687189098000201781e-06 2
2.50000000000000013878e-02  5.06249999999999977796e-01  7.84397126341847827913e-02  4.25935619002837384528e-06 2
3.12500000000000000000e-02  5.06249999999999977796e-01  9.79929269793851642767e-02  5.31961345612286251594e-06 2
3.74999999999999986122e-02  5.06249999999999977796e-01  1.17508363755573441711e-01  6.37725019086987643391e-06 2
4.37499999999999972244e-02  5.06249999999999977796e-01  1.36978499375378287573e-01  7.43187365595532334339e-06 2
5.00000000000000027756e-02  5.06249999999999977796e-01  1.56395827716135277230e-01  8.48309202600150413787e-06 2
5.62500000000000013878e-02  5.06249999999999977796e-01  1.75752863013640930889e-01  9.53051453864151021378e-06 2
6.25000000000000000000e-02  5.06249999999999977796e-01  1.95042142748057173440e-01  1.05737516454262880927e-05 2
6.87500000000000055511e-02  5.06249999999999977796e-01  2.14256230520854934474e-01  1.16124151619267923508e-05 2
7.49999999999999972244e-02  5.06249999999999977796e-01  2.33387718921687137286e-01  1.26461184171977603086e-05 2
8.12500000000000027756e-02  5.06249999999999977796e-01  2.52429232384086543739e-01  1.36744764032692422973e-05 2
8.74999999999999944489e-02  5.06249999999999977796e-01  2.71373430028884421450e-01  1.46971059257205993731e-05 2
9.37500000000000000000e-02  5.06249999999999977796e-01  2.90213008494260849002e-01  1.57136257499246312364e-05 2
1.00000000000000005551e-01  5.06249999999999977796e-01  3.08940704751329786593e-01  1.67236567480966158428e-05 2
1.06249999999999997224e-01  5.06249999999999977796e-01  3.27549298904172336844e-01  1.77268220478143945229e-05 2
1.12500000000000002776e-01  5.06249999999999977796e-01  3.46031616973245803592e-01  1.87227471757367425198e-05 2
1.18749999999999994449e-01  5.06249999999999977796e-01  3.64380533661083250152e-01  1.97110602080940999770e-05 2
1.25000000000000000000e-01  5.06249999999999977796e-01  3.82588975099236949795e-01  2.06913919083562269918e-05 2
1.31250000000000005551e-01  5.06249999999999977796e-01  4.00649921575383982653e-01  2.16633758749473770422e-05 2
1.37500000000000011102e-01  5.06249999999999977796e-01  4.18556410239556420105e-01  2.26266486851312009776e-05 2
1.43749999999999988898e-01  5.06249999999999977796e-01  4.36301537788456816891e-01  2.35808500305689783261e-05 2
1.49999999999999994449e-01  5.06249999999999977796e-01  4.53878463126801523497e-01  2.45256228682544374919e-05 2
1.56250000000000000000e-01  5.06249999999999977796e-01  4.71280410004703498306e-01  2.54606135473567363192e-05 2
1.62500000000000005551e-01  5.06249999999999977796e-01  4.88500669630030470714e-01  2.63854719605993714993e-05 2
1.68750000000000011102e-01  5.06249999999999977796e-01  5.05532603254782886282e-01  2.72998516689382242362e-05 2
1.74999999999999988898e-01  5.06249999999999977796e-01  5.22369644734440474743e-01  2.82034100518302466298e-05 2
1.81249999999999994449e-01  5.06249999999999977796e-01  5.39005303059353679807e-01  2.90958084218084778172e-05 2
1.87500000000000000000e-01  5.06249999999999977796e-01  5.55433164857121575153e-01  2.99767121846317152745e-05 2
1.93750000000000005551e-01  5.06249999999999977796e-01  5.71646896865094289453e-01  3.08457909433679233757e-05 2
2.00000000000000011102e-01  5.06249999999999977796e-01  5.87640248371940510097e-01  3.17027186512719438838e-05 2
2.06249999999999988898e-01  5.06249999999999977796e-01  6.03407053627426193110e-01  3.25471737273597128137e-05 2
2.12499999999999994449e-01  5.06249999999999977796e-01  6.18941234219423930263e-01  3.33788391845279974746e-05 2
2.18750000000000000000e-01  5.06249999999999977796e-01  6.34236801417244255852e-01  3.41974027645575162637e-05 2
2.25000000000000005551e-01  5.06249999999999977796e-01  6.49287858480414925566e-01  3.50025570486911519197e-05 2
2.31250000000000011102e-01  5.06249999999999977796e-01  6.64088602931967919574e-01  3.57939995947464950632e-05 2
2.37499999999999988898e-01  5.06249999999999977796e-01  6.78633328795415269319e-01  3.65714330434752099563e-05 2
2.43749999999999994449e-01  5.06249999999999977796e-01  6.92916428794494998478e-01  3.73345652495693514084e-05 2
2.50000000000000000000e-01  5.06249999999999977796e-01  7.06932396514895144968e-01  3.80831093821365485041e-05 2
2.56249999999999977796e-01  5.06249999999999977796e-01  7.20675828527055695183e-01  3.88167840607023251209e-05 2
2.62500000000000011102e-01  5.06249999999999977796e-01  7.34141426469310909297e-01  3.95353134469145217622e-05 2
2.68749999999999988898e-01  5.06249999999999977796e-01  7.47323999090485968644e-01  4.02384273722189433897e-05 2
2.75000000000000022204e-01  5.06249999999999977796e-01  7.60218464251231296203e-01  4.09258614356700078929e-05 2
2.81250000000000000000e-01  5.06249999999999977796e-01  7.72819850883278536280e-01  4.15973571094019334282e-05 2
2.87499999999999977796e-01  5.06249999999999977796e-01  7.85123300905869792032e-01  4.22526618520935315360e-05 2
2.93750000000000011102e-01  5.06249999999999977796e-01  7.97124071098639253030e-01  4.28915292068898779121e-05 2
2.99999999999999988898e-01  5.06249999999999977796e-01  8.08817534930216797129e-01  4.35137188935508234522e-05 2
3.06250000000000022204e-01  5.06249999999999977796e-01  8.20199184341834031109e-01  4.41189969123678693563e-05 2
3.12500000000000000000e-01  5.06249999999999977796e-01  8.31264631485259308796e-01  4.47071356407535702715e-05 2
3.18749999999999977796e-01  5.06249999999999977796e-01  8.42009610414390485822e-01  4.52779139280545805946e-05 2
3.25000000000000011102e-01  5.06249999999999977796e-01  8.52429978729872028786e-01  4.58311171670500172581e-05 2
3.31249999999999988898e-01  5.06249999999999977796e-01  8.62521719176038814680e-01  4.63665374057509183103e-05 2
3.37500000000000022204e-01  5.06249999999999977796e-01  8.72280941189655600887e-01  4.68839734177883826760e-05 2
3.43750000000000000000e-01  5.06249999999999977796e-01  8.81703882399795579872e-01  4.73832307867905200283e-05 2
3.49999999999999977796e-01  5.06249999999999977796e-01  8.90786910078298577176e-01  4.78641219895381553329e-05 2
3.56250000000000011102e-01  5.06249999999999977796e-01  8.99526522540257222893e-01  4.83264664673521693317e-05 2
3.62499999999999988898e-01  5.06249999999999977796e-01  9.07919350493970989113e-01  4.87700907075838685500e-05 2
3.68750000000000022204e-01  5.06249999999999977796e-01  9.15962158339874488178e-01  4.91948283095622329597e-05 2
3.75000000000000000000e-01  5.06249999999999977796e-01  9.23651845417917782832e-01  4.96005200518734312709e-05 2
3.81249999999999977796e-01  5.06249999999999977796e-01  9.30985447202919647047e-01  4.99870139656355405577e-05 2
3.87500000000000011102e-01  5.06249999999999977796e-01  9.37960136447446579666e-01  5.03541653942285449830e-05 2
3.93749999999999988898e-01  5.06249999999999977796e-01  9.44573224271769928961e-01  5.07018370488054870293e-05 2
4.00000000000000022204e-01  5.06249999999999977796e-01  9.50822161200471027698e-01  5.10298990723523360202e-05 2
4.06250000000000000000e-01  5.06249999999999977796e-01  9.56704538145305871666e-01  5.13382290946440278390e-05 2
4.12499999999999977796e-01  5.06249999999999977796e-01  9.62218087333957750040e-01  5.16267122765423636110e-05 2
4.18750000000000011102e-01  5.06249999999999977796e-01  9.67360683184295133685e-01  5.18952413667284062626e-05 2
4.24999999999999988898e-01  5.06249999999999977796e-01  9.72130343123822848739e-01  5.21437167432248216414e-05 2
4.31250000000000022204e-01  5.06249999999999977796e-01  9.76525228353993468566e-01  5.23720464601362678536e-05 2
4.37500000000000000000e-01  5.06249999999999977796e-01  9.80543644559101701397e-01  5.25801462802899521876e-05 2
4.43749999999999977796e-01  5.06249999999999977796e-01  9.84184042559461125244e-01  5.27679397228641988704e-05 2
4.50000000000000011102e-01  5.06249999999999977796e-01  9.87445018908648997069e-01  5.29353580854818872581e-05 2
4.56249999999999988898e-01  5.06249999999999977796e-01  9.90325316434545577238e-01  5.30823404863989267710e-05 2
4.62500000000000022204e-01  5.06249999999999977796e-01  9.92823824724004322384e-01  5.32088338827119144980e-05 2
4.68750000000000000000e-01  5.06249999999999977796e-01  9.94939580550924795865e-01  5.33147931022215360031e-05 2
4.74999999999999977796e-01  5.06249999999999977796e-01  9.96671768247593292678e-01  5.34001808630835128611e-05 2
4.81250000000000011102e-01  5.06249999999999977796e-01  9.98019720019135081479e-01  5.34649677903509257249e-05 2
4.87499999999999988898e-01  5.06249999999999977796e-01  9.98982916200954473851e-01  5.35091324358472064660e-05 2
4.93750000000000022204e-01  5.06249999999999977796e-01  9.99560985459075568293e-01  5.35326612858266770445e-05 2
5.00000000000000000000e-01  5.06249999999999977796e-01  9.99753704933290854306e-01  5.35355487739641588973e-05 2
5.06249999999999977796e-01  5.06249999999999977796e-01  9.99561000323070381057e-01  5.35177972910139132523e-05 2
5.12499999999999955591e-01  5.06249999999999977796e-01  9.98982945916213616044e-01  5.34794171767050130484e-05 2
5.18750000000000044409e-01  5.06249999999999977796e-01  9.98019764560187705449e-01  5.34204267377269559347e-05 2
5.25000000000000022204e-01  5.06249999999999977796e-01  9.96671827576231517121e-01  5.33408522248590699633e-05 2
5.31250000000000000000e-01  5.06249999999999977796e-01  9.94939654616181057278e-01  5.32407278460711452794e-05 2
5.37499999999999977796e-01  5.06249999999999977796e-01  9.92823913462143381459e-01  5.31200957436528398148e-05 2
5.43749999999999955591e-01  5.06249999999999977796e-01  9.90325419769039649864e-01  5.29790059923263001451e-05 2
5.50000000000000044409e-01  5.06249999999999977796e-01  9.87445136750158547478e-01  5.28175165758204556710e-05 2
5.56250000000000022204e-01  5.06249999999999977796e-01  9.84184174805808664743e-01  5.26356933753246991614e-05 2
5.62500000000000000000e-01  5.06249999999999977796e-01  9.80543791095234595900e-01  5.24336101473954485641e-05 2
5.68749999999999977796e-01  5.06249999999999977796e-01  9.76525389051957182218e-01  5.22113484964226159946e-05 2
5.74999999999999955591e-01  5.06249999999999977796e-01  9.72130517842716868060e-01  5.19689978493165227746e-05 2
5.81250000000000044409e-01  5.06249999999999977796e-01  9.67360871770229890920e-01  5.17066554319711713106e-05 2
5.87500000000000022204e-01  5.06249999999999977796e-01  9.62218289620010436280e-01  5.14244262238561233858e-05 2
5.93750000000000000000e-01  5.06249999999999977796e-01  9.56704753951468478412e-01  5.11224229320372813845e-05 2
5.99999999999999977796e-01  5.06249999999999977796e-01  9.50822390333597944334e-01  5.08007659455467219800e-05 2
6.06249999999999955591e-01  5.06249999999999977796e-01  9.44573466525513216752e-01  5.04595833056287190743e-05 2
6.12500000000000044409e-01  5.06249999999999977796e-01  9.37960391602201681849e-01  5.00990106390153400184e-05 2
6.18750000000000022204e-01  5.06249999999999977796e-01  9.30985715025748783447e-01  4.97191911366101635394e-05 2
6.25000000000000000000e-01  5.06249999999999977796e-01  9.23652125662488554525e-01  4.93202754811017385350e-05 2
6.31249999999999977796e-01  5.06249999999999977796e-01  9.15962450746382050859e-01  4.89024218019995515760e-05 2
6.37499999999999955591e-01  5.06249999999999977796e-01  9.07919654789055341482e-01  4.84657956234535447493e-05 2