Titile = 'Poisson'  
VARIABLES = X, Y, U, Error, Rank 
zone N= 1771, E = 3200
DATAPACKING=POINT, ZONETYPE=FETRIANGLE
0.00000000000000000000e+00  6.87500000000000000000e-01  0.00000000000000000000e+00  0.00000000000000000000e+00 11
6.25000000000000034694e-03  6.87500000000000000000e-01  1.63119014335673245819e-02  1.29172247386975802552e-05 11
1.25000000000000006939e-02  6.87500000000000000000e-01  3.26178137198607706604e-02  2.55300684013706757902e-05 11
1.87499999999999993061e-02  6.87500000000000000000e-01  4.89229030869222439315e-02  2.63812008711797330029e-05 11
2.50000000000000013878e-02  6.87500000000000000000e-01  6.52091317435569417515e-02  2.72221628825897177251e-05 11
3.12500000000000000000e-02  6.87500000000000000000e-01  8.14702210385927355629e-02  2.80526302312150699336e-05 11
3.74999999999999986122e-02  6.87500000000000000000e-01  9.76999020125563499839e-02  2.88722827621046285174e-05 11
4.37499999999999972244e-02  6.87500000000000000000e-01  1.13891917814494578187e-01  2.96808044752544519795e-05 11
5.00000000000000027756e-02  6.87500000000000000000e-01  1.30040026114085327524e-01  3.04778836715258183432e-05 11
5.62500000000000013878e-02  6.87500000000000000000e-01  1.46138001508183734689e-01  3.12632130637646721283e-05 11
6.25000000000000000000e-02  6.87500000000000000000e-01  1.62179637920830593822e-01  3.20364898983016566092e-05 11
6.87500000000000055511e-02  6.87500000000000000000e-01  1.78158750995840081677e-01  3.27974160445609896897e-05 11
7.49999999999999972244e-02  6.87500000000000000000e-01  1.94069180480920616683e-01  3.35456981757076277972e-05 11
8.12500000000000027756e-02  6.87500000000000000000e-01  2.09904792602648576638e-01  3.42810478030919352221e-05 11
8.74999999999999944489e-02  6.87500000000000000000e-01  2.25659482431133734393e-01  3.50031814080886682916e-05 11
9.37500000000000000000e-02  6.87500000000000000000e-01  2.41327176233462115107e-01  3.57118206752160549655e-05 11
1.00000000000000005551e-01  6.87500000000000000000e-01  2.56901833815564140107e-01  3.64066922712291685116e-05 11
1.06249999999999997224e-01  6.87500000000000000000e-01  2.72377450850321389808e-01  3.70875284532723448194e-05 11
1.12500000000000002776e-01  6.87500000000000000000e-01  2.87748061192815152154e-01  3.77540667059195200750e-05 11
1.18749999999999994449e-01  6.87500000000000000000e-01  3.03007739180245705413e-01  3.84060499857841186611e-05 11
1.25000000000000000000e-01  6.87500000000000000000e-01  3.18150601916178055184e-01  3.90432270305218764861e-05 11
1.31250000000000005551e-01  6.87500000000000000000e-01  3.33170811538761824089e-01  3.96653522042877959564e-05 11
1.37500000000000011102e-01  6.87500000000000000000e-01  3.48062577471356049408e-01  4.02721855747856238850e-05 11
1.43749999999999988898e-01  6.87500000000000000000e-01  3.62820158654672542120e-01  4.08634932393958649754e-05 11
1.49999999999999994449e-01  6.87500000000000000000e-01  3.77437865760136437299e-01  4.14390473433834394257e-05 11
1.56250000000000000000e-01  6.87500000000000000000e-01  3.91910063383589635233e-01  4.19986258076709972897e-05 11
1.62500000000000005551e-01  6.87500000000000000000e-01  4.06231172217202507468e-01  4.25420130590326017739e-05 11
1.68750000000000011102e-01  6.87500000000000000000e-01  4.20395671200959608615e-01  4.30689995566946315364e-05 11
1.74999999999999988898e-01  6.87500000000000000000e-01  4.34398099650929903071e-01  4.35793820764973638404e-05 11
1.81249999999999994449e-01  6.87500000000000000000e-01  4.48233059364241459566e-01  4.40729640124315480421e-05 11
1.87500000000000000000e-01  6.87500000000000000000e-01  4.61895216700847655034e-01  4.45495547958252302578e-05 11
1.93750000000000005551e-01  6.87500000000000000000e-01  4.75379304638509581071e-01  4.50089712064616342957e-05 11
2.00000000000000011102e-01  6.87500000000000000000e-01  4.88680124805335514004e-01  4.54510354410131434122e-05 11
2.06249999999999988898e-01  6.87500000000000000000e-01  5.01792549481471006345e-01  4.58755775626373818454e-05 11
2.12499999999999994449e-01  6.87500000000000000000e-01  5.14711523577593976775e-01  4.62824339053646838238e-05 11
2.18750000000000000000e-01  6.87500000000000000000e-01  5.27432066583514158609e-01  4.66714473706941745945e-05 11
2.25000000000000005551e-01  6.87500000000000000000e-01  5.39949274487671271316e-01  4.70424680713010801014e-05 11
2.31250000000000011102e-01  6.87500000000000000000e-01  5.52258321667946749933e-01  4.73953531673343420039e-05 11
2.37499999999999988898e-01  6.87500000000000000000e-01  5.64354462752742591647e-01  4.77299662112740108455e-05 11
2.43749999999999994449e-01  6.87500000000000000000e-01  5.76233034448939585026e-01  4.80461786740438157040e-05 11
2.50000000000000000000e-01  6.87500000000000000000e-01  5.87889457341304821902e-01  4.83438683746006958586e-05 11
2.56249999999999977796e-01  6.87500000000000000000e-01  5.99319237657140790887e-01  4.86229203304766599558e-05 11
2.62500000000000011102e-01  6.87500000000000000000e-01  6.10517968997870363879e-01  4.88832276513972985299e-05 11
2.68749999999999988898e-01  6.87500000000000000000e-01  6.21481334040133726049e-01  4.91246892340146956712e-05 11
2.75000000000000022204e-01  6.87500000000000000000e-01  6.32205106197628263764e-01  4.93472123722638045251e-05 11
2.81250000000000000000e-01  6.87500000000000000000e-01  6.42685151251982444975e-01  4.95507113473792060176e-05 11
2.87499999999999977796e-01  6.87500000000000000000e-01  6.52917428946539035728e-01  4.97351074987273378269e-05 11
2.93750000000000011102e-01  6.87500000000000000000e-01  6.62897994543388935362e-01  4.99003298158884334157e-05 11
2.99999999999999988898e-01  6.87500000000000000000e-01  6.72623000344575006082e-01  5.00463145332030734380e-05 11
3.06250000000000022204e-01  6.87500000000000000000e-01  6.82088697174898617170e-01  5.01730057088645153840e-05 11
3.12500000000000000000e-01  6.87500000000000000000e-01  6.91291435828651712470e-01  5.02803538933171978442e-05 11
3.18749999999999977796e-01  6.87500000000000000000e-01  7.00227668474325382064e-01  5.03683182776493154620e-05 11
3.25000000000000011102e-01  6.87500000000000000000e-01  7.08893950024404029264e-01  5.04368646716546464859e-05 11
3.31249999999999988898e-01  6.87500000000000000000e-01  7.17286939462366879283e-01  5.04859666622392566637e-05 11
3.37500000000000022204e-01  6.87500000000000000000e-01  7.25403401130996883239e-01  5.05156053406397020922e-05 11
3.43750000000000000000e-01  6.87500000000000000000e-01  7.33240205979747705634e-01  5.05257693497185300657e-05 11
3.49999999999999977796e-01  6.87500000000000000000e-01  7.40794332771322672215e-01  5.05164546180658646790e-05 11
3.56250000000000011102e-01  6.87500000000000000000e-01  7.48062869245775807769e-01  5.04876650053720510414e-05 11
3.62499999999999988898e-01  6.87500000000000000000e-01  7.55043013244539817919e-01  5.04394110036887610704e-05 11
3.68750000000000022204e-01  6.87500000000000000000e-01  7.61732073788149666171e-01  5.03717122964930652529e-05 11
3.75000000000000000000e-01  6.87500000000000000000e-01  7.68127472117595355705e-01  5.02845938211704535092e-05 11
3.81249999999999977796e-01  6.87500000000000000000e-01  7.74226742684528956850e-01  5.01780897135262193842e-05 11
3.87500000000000011102e-01  6.87500000000000000000e-01  7.80027534103678865662e-01  5.00522413962034562473e-05 11
3.93749999999999988898e-01  6.87500000000000000000e-01  7.85527610060149705795e-01  4.99070967659998032673e-05 11
4.00000000000000022204e-01  6.87500000000000000000e-01  7.90724850170062665278e-01  4.97427116781246070332e-05 11
4.06250000000000000000e-01  6.87500000000000000000e-01  7.95617250797773567506e-01  4.95591501539216494621e-05 11
4.12499999999999977796e-01  6.87500000000000000000e-01  8.00202925829665234758e-01  4.93564830036374857514e-05 11
4.18750000000000011102e-01  6.87500000000000000000e-01  8.04480107401973065784e-01  4.91347871069969244218e-05 11
4.24999999999999988898e-01  6.87500000000000000000e-01  8.08447146578394559846e-01  4.88941493185235387386e-05 11
4.31250000000000022204e-01  6.87500000000000000000e-01  8.12102513989985341780e-01  4.86346622345923407238e-05 11
4.37500000000000000000e-01  6.87500000000000000000e-01  8.15444800424132365535e-01  4.83564247849566086757e-05 11
4.43749999999999977796e-01  6.87500000000000000000e-01  8.18472717364473023594e-01  4.80595455545351768478e-05 11
4.50000000000000011102e-01  6.87500000000000000000e-01  8.21185097491781923473e-01  4.77441386017574131984e-05 11
4.56249999999999988898e-01  6.87500000000000000000e-01  8.23580895132743462383e-01  4.74103246659307586697e-05 11
4.62500000000000022204e-01  6.87500000000000000000e-01  8.25659186660342103714e-01  4.70582338575331604602e-05 11
4.68750000000000000000e-01  6.87500000000000000000e-01  8.27419170854474916865e-01  4.66880010712156234831e-05 11
4.74999999999999977796e-01  6.87500000000000000000e-01  8.28860169208182062661e-01  4.62997685891641808098e-05 11
4.81250000000000011102e-01  6.87500000000000000000e-01  8.29981626187766940994e-01  4.58936874827564622592e-05 11
4.87499999999999988898e-01  6.87500000000000000000e-01  8.30783109451650791932e-01  4.54699128692448439892e-05 11
4.93750000000000022204e-01  6.87500000000000000000e-01  8.31264310011948226453e-01  4.50286089520579579926e-05 11
5.00000000000000000000e-01  6.87500000000000000000e-01  8.31425042356661148091e-01  4.45699458843096252281e-05 11
5.06249999999999977796e-01  6.87500000000000000000e-01  8.31265244520770996139e-01  4.40941001292882717166e-05 11
5.12499999999999955591e-01  6.87500000000000000000e-01  8.30784978109598171159e-01  4.36012549218656175753e-05 11
5.18750000000000044409e-01  6.87500000000000000000e-01  8.29984428274462393560e-01  4.30916007873038964249e-05 11
5.25000000000000022204e-01  6.87500000000000000000e-01  8.28863903642349297840e-01  4.25653344219290019623e-05 11
5.31250000000000000000e-01  6.87500000000000000000e-01  8.27423836197918483037e-01  4.20226576277604735310e-05 11
5.37499999999999977796e-01  6.87500000000000000000e-01  8.25664781113214174546e-01  4.14637809854623284878e-05 11
5.43749999999999955591e-01  6.87500000000000000000e-01  8.23587416538924088627e-01  4.08889184853045151158e-05 11
5.50000000000000044409e-01  6.87500000000000000000e-01  8.21192543336818792099e-01  4.02982935647777651411e-05 11
5.56250000000000022204e-01  6.87500000000000000000e-01  8.18481084778251877232e-01  3.96921317756815383859e-05 11
5.62500000000000000000e-01  6.87500000000000000000e-01  8.15454086180360526726e-01  3.90706685567954181693e-05 11
5.68749999999999977796e-01  6.87500000000000000000e-01  8.12112714509343969205e-01  3.84341428759649161861e-05 11
5.74999999999999955591e-01  6.87500000000000000000e-01  8.08458257928107437706e-01  3.77827996057567006005e-05 11
5.81250000000000044409e-01  6.87500000000000000000e-01  8.04492125297985416488e-01  3.71168910946462204947e-05 11
5.87500000000000022204e-01  6.87500000000000000000e-01  8.00215845639913991860e-01  3.64366727548803837067e-05 11
5.93750000000000000000e-01  6.87500000000000000000e-01  7.95631067540512604275e-01  3.57424074148848802679e-05 11
5.99999999999999977796e-01  6.87500000000000000000e-01  7.90739558518786078700e-01  3.50343629548222068593e-05 11
6.06249999999999955591e-01  6.87500000000000000000e-01  7.85543204345103496244e-01  3.43128118123203762480e-05 11
6.12500000000000044409e-01  6.87500000000000000000e-01  7.80044008312315018117e-01  3.35780327599399797123e-05 11
6.18750000000000022204e-01  6.87500000000000000000e-01  7.74244090466024159625e-01  3.28303082184344674488e-05 11
6.25000000000000000000e-01  6.87500000000000000000e-01  7.68145686783641146178e-01  3.20699277753799805168e-05 11
6.31249999999999977796e-01  6.87500000000000000000e-01  7.61751148317558524070e-01  3.12971828876351665372e-05 11
6.37499999999999955591e-01  6.87500000000000000000e-01  7.55062940282678396464e-01  3.05123728652212378165e-05 11
6.43750000000000044409e-01  6.87500000000000000000e-01  7.48083641111069841401e-01  2.97157997112273974949e-05 11
6.50000000000000022204e-01  6.87500000000000000000e-01  7.40815941455804982674e-01  2.89077701358664285181e-05 11
6.56250000000000000000e-01  6.87500000000000000000e-01  7.33262643152166382343e-01  2.80885969310418204259e-05 11
6.62499999999999977796e-01  6.87500000000000000000e-01  7.25426658142560465414e-01  2.72585937772795716683e-05 11
6.68749999999999955591e-01  6.87500000000000000000e-01  7.17311007345630247123e-01  2.64180833989824392916e-05 11
6.75000000000000044409e-01  6.87500000000000000000e-01  7.08918819502132424581e-01  2.55673869433703515597e-05 11
6.81250000000000022204e-01  6.87500000000000000000e-01  7.00253329957845171982e-01  2.47068347578593972003e-05 11
6.87500000000000000000e-01  6.87500000000000000000e-01  6.91317879425572767715e-01  2.38367569724839967193e-05 11
6.93749999999999977796e-01  6.87500000000000000000e-01  6.82115912690295478349e-01  2.29574903120033368964e-05 11
6.99999999999999955591e-01  6.87500000000000000000e-01  6.72650977286809226285e-01  2.20693722989828700065e-05 11
7.06250000000000044409e-01  6.87500000000000000000e-01  6.62926722126156553472e-01  2.11727470482703239441e-05 11
7.12500000000000022204e-01  6.87500000000000000000e-01  6.52946896095406570382e-01  2.02679586311926840381e-05 11
7.18750000000000000000e-01  6.87500000000000000000e-01  6.42715346606590576251e-01  1.93553567393589531775e-05 11
7.24999999999999977796e-01  6.87500000000000000000e-01  6.32236018117198761423e-01  1.84352928017661454874e-05 11
7.31249999999999955591e-01  6.87500000000000000000e-01  6.21512950607755576549e-01  1.75081216123862404288e-05 11
7.37500000000000044409e-01  6.87500000000000000000e-01  6.10550278023899828383e-01  1.65742016218217713686e-05 11
7.43750000000000022204e-01  6.87500000000000000000e-01  5.99352226686763356334e-01  1.56338907081332578741e-05 11
7.50000000000000000000e-01  6.87500000000000000000e-01  5.87923113655879348016e-01  1.46875538001856043024e-05 11
7.56249999999999977796e-01  6.87500000000000000000e-01  5.76267345073834369451e-01  1.37355537792593906943e-05 11
7.62499999999999955591e-01  6.87500000000000000000e-01  5.64389414460294891462e-01  1.27782586591962399325e-05 11
7.68750000000000044409e-01  6.87500000000000000000e-01  5.52293900984385244257e-01  1.18160367286179734947e-05 11
7.75000000000000022204e-01  6.87500000000000000000e-01  5.39985467694928833460e-01  1.08492608138499591064e-05 11
7.81250000000000000000e-01  6.87500000000000000000e-01  5.27468859729948946757e-01  9.87830093590602587028e-06 11
7.87499999999999977796e-01  6.87500000000000000000e-01  5.14748902477628278440e-01  8.90353387128506312820e-06 11
7.93749999999999955591e-01  6.87500000000000000000e-01  5.01830499725424261648e-01  7.92533360949310150545e-06 11
8.00000000000000044409e-01  6.87500000000000000000e-01  4.88718631762375566030e-01  6.94407840101662898746e-06 11
8.06250000000000022204e-01  6.87500000000000000000e-01  4.75418353464221010718e-01  5.96014549503198765024e-06 11
8.12500000000000000000e-01  6.87500000000000000000e-01  4.61934792340160993440e-01  4.97391548248682369149e-06 11
8.18749999999999977796e-01  6.87500000000000000000e-01  4.48273146560393853655e-01  3.98576786020399254085e-06 11
8.24999999999999955591e-01  6.87500000000000000000e-01  4.34438682950000598648e-01  2.99608300591280851677e-06 11
8.31250000000000044409e-01  6.87500000000000000000e-01  4.20436734956283197917e-01  2.00524423310532995401e-06 11
8.37500000000000022204e-01  6.87500000000000000000e-01  4.06272700598864611177e-01  1.01363139687338232875e-06 11
8.43750000000000000000e-01  6.87500000000000000000e-01  3.91952040381391253465e-01  2.16280062192986122227e-08 11
8.49999999999999977796e-01  6.87500000000000000000e-01  3.77480275190791136897e-01  9.70383311260647474228e-07 11
8.56249999999999955591e-01  6.87500000000000000000e-01  3.62862984168672686458e-01  1.96202076035989492198e-06 11
8.62500000000000044409e-01  6.87500000000000000000e-01  3.48105802559130428353e-01  2.95290219975985479550e-06 11
8.68750000000000022204e-01  6.87500000000000000000e-01  3.33214419535547479168e-01  3.94264458120074934300e-06 11
8.75000000000000000000e-01  6.87500000000000000000e-01  3.18194576010469798444e-01  4.93086726111036099951e-06 11
8.81249999999999977796e-01  6.87500000000000000000e-01  3.03052062419474521615e-01  5.91718924303208382298e-06 11
8.87499999999999955591e-01  6.87500000000000000000e-01  2.87792716489395750123e-01  6.90122987440089374900e-06 11
8.93750000000000044409e-01  6.87500000000000000000e-01  2.72422420988393421126e-01  7.88260961892550682251e-06 11
9.00000000000000022204e-01  6.87500000000000000000e-01  2.56947101458884219483e-01  8.86095104873918515409e-06 11
9.06250000000000000000e-01  6.87500000000000000000e-01  2.41372723929975857571e-01  9.83587583847089774736e-06 11
9.12499999999999977796e-01  6.87500000000000000000e-01  2.25705292621778519369e-01  1.08070092364187519962e-05 11
9.18749999999999955591e-01  6.87500000000000000000e-01  2.09950847626326542184e-01  1.17739758746793210520e-05 11
9.25000000000000044409e-01  6.87500000000000000000e-01  1.94115462582962250426e-01  1.27364038658150935390e-05 11
9.31250000000000022204e-01  6.87500000000000000000e-01  1.78205242333174002090e-01  1.36939212893871786747e-05 11
9.37500000000000000000e-01  6.87500000000000000000e-01  1.62226320570559690015e-01  1.46461598304892248734e-05 11
9.43749999999999977796e-01  6.87500000000000000000e-01  1.46184857472930695987e-01  1.55927516830023371597e-05 11
9.49999999999999955591e-01  6.87500000000000000000e-01  1.30087037330185811834e-01  1.65333324288474692310e-05 11
9.56250000000000044409e-01  6.87500000000000000000e-01  1.13939066158111931837e-01  1.74675391420714420931e-05 11
9.62500000000000022204e-01  6.87500000000000000000e-01  9.77471693072544944858e-02  1.83950119361231401172e-05 11
9.68750000000000000000e-01  6.87500000000000000000e-01  8.15175890618039106217e-02  1.93153929797795775869e-05 11
9.74999999999999977796e-01  6.87500000000000000000e-01  6.52565822340080287089e-02  2.02283275683862173722e-05 11
9.81249999999999955591e-01  6.87500000000000000000e-01  4.89704177516301839002e-02  2.11334638363785964899e-05 11
9.87500000000000044409e-01  6.87500000000000000000e-01  3.26653742409473701880e-02  2.20304526853121185326e-05 11
9.93750000000000022204e-01  6.87500000000000000000e-01  1.63359857378171172138e-02  1.11670795109007625623e-05 11
1.00000000000000000000e+00  6.87500000000000000000e-01  0.00000000000000000000e+00  1.01825659929460304324e-16 11
0.00000000000000000000e+00  6.93749999999999977796e-01  0.00000000000000000000e+00  0.00000000000000000000e+00 11
6.25000000000000034694e-03  6.93749999999999977796e-01  1.60942525361691228525e-02  1.32571002663291193091e-05 11
1.25000000000000006939e-02  6.93749999999999977796e-01  3.21826085727167990336e-02  2.62009485687969556622e-05 11
1.87499999999999993061e-02  6.93749999999999977796e-01  4.82706525203315806039e-02  2.70397766109833903592e-05 11
2.50000000000000013878e-02  6.93749999999999977796e-01  6.43400872125217682118e-02  2.78681803086849866347e-05 11
3.12500000000000000000e-02  6.93749999999999977796e-01  8.03847175763223453782e-02  2.86858402920170396655e-05 11
3.74999999999999986122e-02  6.93749999999999977796e-01  9.63983581013066748167e-02  2.94924413353769843127e-05 11
4.37499999999999972244e-02  6.93749999999999977796e-01  1.12374835224218955210e-01  3.02876724785211548507e-05 11
5.00000000000000027756e-02  6.93749999999999977796e-01  1.28307989708990488609e-01  3.10712271564261843793e-05 11
5.62500000000000013878e-02  6.93749999999999977796e-01  1.44191679021283242212e-01  3.18428032765050161856e-05 11
6.25000000000000000000e-02  6.93749999999999977796e-01  1.60019779696494390819e-01  3.26021033945356197847e-05 11
6.87500000000000055511e-02  6.93749999999999977796e-01  1.75786189700508854727e-01  3.33488347890598113565e-05 11
7.49999999999999972244e-02  6.93749999999999977796e-01  1.91484830782175541319e-01  3.40827095480222830304e-05 11
8.12500000000000027756e-02  6.93749999999999977796e-01  2.07109650816466372980e-01  3.48034448026390830222e-05 11
8.74999999999999944489e-02  6.93749999999999977796e-01  2.22654626137882477588e-01  3.55107626392736630550e-05 11
9.37500000000000000000e-02  6.93749999999999977796e-01  2.38113763862495581014e-01  3.62043904031661423204e-05 11
1.00000000000000005551e-01  6.93749999999999977796e-01  2.53481104198388818016e-01  3.68840607335441106329e-05 11
1.06249999999999997224e-01  6.93749999999999977796e-01  2.68750722743449632635e-01  3.75495114869339730035e-05 11
1.12500000000000002776e-01  6.93749999999999977796e-01  2.83916732768937696285e-01  3.82004862401474909461e-05 11
1.18749999999999994449e-01  6.93749999999999977796e-01  2.98973287489353645174e-01  3.88367339662631927411e-05 11
1.25000000000000000000e-01  6.93749999999999977796e-01  3.13914582316247581240e-01  3.94580093703855716569e-05 11
1.31250000000000005551e-01  6.93749999999999977796e-01  3.28734857096013299849e-01  4.00640729686929653042e-05 11
1.37500000000000011102e-01  6.93749999999999977796e-01  3.43428398330570927577e-01  4.06546911477789763012e-05 11
1.43749999999999988898e-01  6.93749999999999977796e-01  3.57989541380156817141e-01  4.12296361262942667736e-05 11
1.49999999999999994449e-01  6.93749999999999977796e-01  3.72412672646880327232e-01  4.17886863131600172494e-05 11
1.56250000000000000000e-01  6.93749999999999977796e-01  3.86692231739136360602e-01  4.23316261287665085433e-05 11
1.62500000000000005551e-01  6.93749999999999977796e-01  4.00822713615031467338e-01  4.28582462989601786774e-05 11
1.68750000000000011102e-01  6.93749999999999977796e-01  4.14798670704763838835e-01  4.33683438543219779149e-05 11
1.74999999999999988898e-01  6.93749999999999977796e-01  4.28614715010900426684e-01  4.38617220729908829924e-05 11
1.81249999999999994449e-01  6.93749999999999977796e-01  4.42265520185456173508e-01  4.43381906529149993901e-05 11
1.87500000000000000000e-01  6.93749999999999977796e-01  4.55745823582808073926e-01  4.47975662795641049740e-05 11
1.93750000000000005551e-01  6.93749999999999977796e-01  4.69050428290001042431e-01  4.52396712410374490787e-05 11
2.00000000000000011102e-01  6.93749999999999977796e-01  4.82174205128005795018e-01  4.56643357474306732513e-05 11
2.06249999999999988898e-01  6.93749999999999977796e-01  4.95112094631438570680e-01  4.60713956725866680131e-05 11
2.12499999999999994449e-01  6.93749999999999977796e-01  5.07859108997648300843e-01  4.64606940506762100540e-05 11
2.18750000000000000000e-01  6.93749999999999977796e-01  5.20410334009498765084e-01  4.68320812474498637812e-05 11
2.25000000000000005551e-01  6.93749999999999977796e-01  5.32760930931395537691e-01  4.71854135146720921057e-05 11
2.31250000000000011102e-01  6.93749999999999977796e-01  5.44906138372700521444e-01  4.75205550566348833286e-05 11
2.37499999999999988898e-01  6.93749999999999977796e-01  5.56841274124809548773e-01  4.78373766107376141576e-05 11
2.43749999999999994449e-01  6.93749999999999977796e-01  5.68561736966111119784e-01  4.81357556195716185243e-05 11
2.50000000000000000000e-01  6.93749999999999977796e-01  5.80063008434470117614e-01  4.84155776530048598261e-05 11
2.56249999999999977796e-01  6.93749999999999977796e-01  5.91340654571118840011e-01  4.86767345141414509158e-05 11
2.62500000000000011102e-01  6.93749999999999977796e-01  6.02390327628914534763e-01  4.89191253995047148351e-05 11
2.68749999999999988898e-01  6.93749999999999977796e-01  6.13207767748114584982e-01  4.91426573012709866362e-05 11
2.75000000000000022204e-01  6.93749999999999977796e-01  6.23788804600050039717e-01  4.93472436274844383775e-05 11
2.81250000000000000000e-01  6.93749999999999977796e-01  6.34129358993437475256e-01  4.95328056637767133452e-05 11
2.87499999999999977796e-01  6.93749999999999977796e-01  6.44225444447731776521e-01  4.96992718573840974727e-05 11
2.93750000000000011102e-01  6.93749999999999977796e-01  6.54073168729805920485e-01  4.98465780293111393462e-05 11
2.99999999999999988898e-01  6.93749999999999977796e-01  6.63668735354476457822e-01  4.99746674028633819376e-05 11
3.06250000000000022204e-01  6.93749999999999977796e-01  6.73008445048090098162e-01  5.00834906564939785767e-05 11
3.12500000000000000000e-01  6.93749999999999977796e-01  6.82088697175014413432e-01  5.01730055929572316131e-05 11
3.18749999999999977796e-01  6.93749999999999977796e-01  6.90905991124911911250e-01  5.02431779944023659823e-05 11
3.25000000000000011102e-01  6.93749999999999977796e-01  6.99456927663202776557e-01  5.02939807256463922158e-05 11
3.31249999999999988898e-01  6.93749999999999977796e-01  7.07738210241180776272e-01  5.03253940972170354939e-05 11
3.37500000000000022204e-01  6.93749999999999977796e-01  7.15746646266671948666e-01  5.03374060976113923971e-05 11
3.43750000000000000000e-01  6.93749999999999977796e-01  7.23479148335149591098e-01  5.03300120869853984118e-05 11
3.49999999999999977796e-01  6.93749999999999977796e-01  7.30932735419892343209e-01  5.03032148950754987027e-05 11
3.56250000000000011102e-01  6.93749999999999977796e-01  7.38104534021199132354e-01  5.02570248472888891911e-05 11
3.62499999999999988898e-01  6.93749999999999977796e-01  7.44991779273911025605e-01  5.01914600271602395765e-05 11
3.68750000000000022204e-01  6.93749999999999977796e-01  7.51591816014941294100e-01  5.01065446485426946310e-05 11
3.75000000000000000000e-01  6.93749999999999977796e-01  7.57902099802715278898e-01  5.00023132211646625933e-05 11
3.81249999999999977796e-01  6.93749999999999977796e-01  7.63920197904086162310e-01  4.98788045532050361430e-05 11
3.87500000000000011102e-01  6.93749999999999977796e-01  7.69643790227599766673e-01  4.97360663364032618006e-05 11
3.93749999999999988898e-01  6.93749999999999977796e-01  7.75070670218817592279e-01  4.95741542426708647895e-05 11
4.00000000000000022204e-01  6.93749999999999977796e-01  7.80198745712223362681e-01  4.93931306668748959510e-05 11
4.06250000000000000000e-01  6.93749999999999977796e-01  7.85026039738143333047e-01  4.91930643505833486984e-05 11
4.12499999999999977796e-01  6.93749999999999977796e-01  7.89550691281642125219e-01  4.89740336196975434291e-05 11
4.18750000000000011102e-01  6.93749999999999977796e-01  7.93770956003648997523e-01  4.87361226849669648686e-05 11
4.24999999999999988898e-01  6.93749999999999977796e-01  7.97685206912582267513e-01  4.84794224604456758243e-05 11
4.31250000000000022204e-01  6.93749999999999977796e-01  8.01291934989307619297e-01  4.82040328068089607427e-05 11
4.37500000000000000000e-01  6.93749999999999977796e-01  8.04589749771466911099e-01  4.79100599189985487669e-05 11
4.43749999999999977796e-01  6.93749999999999977796e-01  8.07577379889677149372e-01  4.75976161372626549451e-05 11
4.50000000000000011102e-01  6.93749999999999977796e-01  8.10253673554585440719e-01  4.72668229848371979074e-05 11
4.56249999999999988898e-01  6.93749999999999977796e-01  8.12617599004400226193e-01  4.69178076265563959169e-05 11
4.62500000000000022204e-01  6.93749999999999977796e-01  8.14668244900986993073e-01  4.65507044890012267047e-05 11
4.68750000000000000000e-01  6.93749999999999977796e-01  8.16404820681449150399e-01  4.61656549649580583150e-05 11
4.74999999999999977796e-01  6.93749999999999977796e-01  8.17826656862379874902e-01  4.57628078845973007560e-05 11
4.81250000000000011102e-01  6.93749999999999977796e-01  8.18933205299116617759e-01  4.53423183021106623869e-05 11
4.87499999999999988898e-01  6.93749999999999977796e-01  8.19724039395941295183e-01  4.49043485556410715276e-05 11
4.93750000000000022204e-01  6.93749999999999977796e-01  8.20198854271767197055e-01  4.44490669792019232887e-05 11
5.00000000000000000000e-01  6.93749999999999977796e-01  8.20357466875940910533e-01  4.39766495727855755149e-05 11
5.06249999999999977796e-01  6.93749999999999977796e-01  8.20199816060260489259e-01  4.34872784859097194499e-05 11
5.12499999999999955591e-01  6.93749999999999977796e-01  8.19725962602302349325e-01  4.29811421945869298611e-05 11
5.18750000000000044409e-01  6.93749999999999977796e-01  8.18936089181693582795e-01  4.24584357251456268045e-05 11
5.25000000000000022204e-01  6.93749999999999977796e-01  8.17830500309703056772e-01  4.19193605614154307659e-05 11
5.31250000000000000000e-01  6.93749999999999977796e-01  8.16409622210973018319e-01  4.13641254410901382244e-05 11
5.37499999999999977796e-01  6.93749999999999977796e-01  8.14674002662836849176e-01  4.07929426391451244172e-05 11
5.43749999999999955591e-01  6.93749999999999977796e-01  8.12624310777620428858e-01  4.02060344063537300485e-05 11
5.50000000000000044409e-01  6.93749999999999977796e-01  8.10261336752650995763e-01  3.96036249191711320350e-05 11
5.56250000000000022204e-01  6.93749999999999977796e-01  8.07585991557091542603e-01  3.89859487228694234773e-05 11
5.62500000000000000000e-01  6.93749999999999977796e-01  8.04599306589993568117e-01  3.83532413923415305135e-05 11
5.68749999999999977796e-01  6.93749999999999977796e-01  8.01302433272735425973e-01  3.77057493790022846269e-05 11
5.74999999999999955591e-01  6.93749999999999977796e-01  7.97696642615162487822e-01  3.70437198803363898492e-05 11
5.81250000000000044409e-01  6.93749999999999977796e-01  7.93783324716234028884e-01  3.63674100999356042507e-05 11
5.87500000000000022204e-01  6.93749999999999977796e-01  7.89563988235673752669e-01  3.56770795880700930525e-05 11
5.93750000000000000000e-01  6.93749999999999977796e-01  7.85040259806905948992e-01  3.49729955879674037078e-05 11
5.99999999999999977796e-01  6.93749999999999977796e-01  7.80213883415036724145e-01  3.42554278535134315575e-05 11
6.06249999999999955591e-01  6.93749999999999977796e-01  7.75086719717986816214e-01  3.35246550735579518232e-05 11
6.12500000000000044409e-01  6.93749999999999977796e-01  7.69660745337229945662e-01  3.27809567061132511867e-05 11
6.18750000000000022204e-01  6.93749999999999977796e-01  7.63938052086797769746e-01  3.20246218417086225827e-05 11
6.25000000000000000000e-01  6.93749999999999977796e-01  7.57920846176115325932e-01  3.12559398211176286964e-05 11