Titile = 'Poisson'  
VARIABLES = X, Y, U, Error, Rank 
zone N= 451, E = 800
DATAPACKING=POINT, ZONETYPE=FETRIANGLE
0.00000000000000000000e+00  2.50000000000000000000e-01  0.00000000000000000000e+00  0.00000000000000000000e+00 1
2.50000000000000013878e-02  2.50000000000000000000e-01  5.54622772994974380656e-02  1.66813354261982627058e-05 1
5.00000000000000027756e-02  2.50000000000000000000e-01  1.10577308231872978306e-01  3.85628093641648961309e-05 1
7.49999999999999972244e-02  2.50000000000000000000e-01  1.65005919135436301959e-01  6.48806836353599258871e-05 1
1.00000000000000005551e-01  2.50000000000000000000e-01  2.18413120004574828892e-01  9.48922198356627610849e-05 1
1.25000000000000000000e-01  2.50000000000000000000e-01  2.70470166555075330894e-01  1.27883518023119702178e-04 1
1.49999999999999994449e-01  2.50000000000000000000e-01  3.20856586032867097114e-01  1.63174927235942845982e-04 1
1.74999999999999988898e-01  2.50000000000000000000e-01  3.69262154088941307872e-01  2.00124181944205670192e-04 1
2.00000000000000011102e-01  2.50000000000000000000e-01  4.15388810078126391456e-01  2.38127699327017605668e-04 1
2.25000000000000005551e-01  2.50000000000000000000e-01  4.58952498445777845593e-01  2.76620556863615973953e-04 1
2.50000000000000000000e-01  2.50000000000000000000e-01  4.99684924371606109528e-01  3.15075628393779449965e-04 1
2.75000000000000022204e-01  2.50000000000000000000e-01  5.37335212472477175005e-01  3.53002258009271763228e-04 1
2.99999999999999988898e-01  2.50000000000000000000e-01  5.71671458076362104528e-01  3.89944741322145738138e-04 1
3.25000000000000011102e-01  2.50000000000000000000e-01  6.02482161340140209838e-01  4.25480786650722642150e-04 1
3.49999999999999977796e-01  2.50000000000000000000e-01  6.29577535282105915648e-01  4.59220052944520062965e-04 1
3.75000000000000000000e-01  2.50000000000000000000e-01  6.52790679631289783025e-01  4.90802806898393839674e-04 1
4.00000000000000022204e-01  2.50000000000000000000e-01  6.71978613258976675837e-01  5.19898704980592540892e-04 1
4.24999999999999988898e-01  2.50000000000000000000e-01  6.87023158852248960748e-01  5.46205682771527811781e-04 1
4.50000000000000011102e-01  2.50000000000000000000e-01  6.97831674413736502416e-01  5.69448919973791767291e-04 1
4.74999999999999977796e-01  2.50000000000000000000e-01  7.04337627123463927425e-01  5.89379841643311586097e-04 1
5.00000000000000000000e-01  2.50000000000000000000e-01  7.06501006074256698852e-01  6.05775112290762862699e-04 1
5.25000000000000022204e-01  2.50000000000000000000e-01  7.04308571387177506651e-01  6.18435577929732360758e-04 1
5.50000000000000044409e-01  2.50000000000000000000e-01  6.97773938222820522270e-01  6.27185110889660890621e-04 1
5.74999999999999955591e-01  2.50000000000000000000e-01  6.86937495222358807112e-01  6.31869312661681448162e-04 1
5.99999999999999977796e-01  2.50000000000000000000e-01  6.71866157933031504790e-01  6.32354030925763588300e-04 1
6.25000000000000000000e-01  2.50000000000000000000e-01  6.52652958789987414079e-01  6.28523648200762785621e-04 1
6.50000000000000022204e-01  2.50000000000000000000e-01  6.29416476233512045546e-01  6.20279101538390165160e-04 1
6.75000000000000044409e-01  2.50000000000000000000e-01  6.02300106530831658169e-01  6.07535595959385332776e-04 1
6.99999999999999955591e-01  2.50000000000000000000e-01  5.71471182837781088715e-01  5.90219979903161551249e-04 1
7.24999999999999977796e-01  2.50000000000000000000e-01  5.37119946970100681227e-01  5.68267760385765541287e-04 1
7.50000000000000000000e-01  2.50000000000000000000e-01  4.99458380248844979743e-01  5.41619751155020257016e-04 1
7.75000000000000022204e-01  2.50000000000000000000e-01  4.58718900630697534737e-01  5.10218371944037851762e-04 1
8.00000000000000044409e-01  2.50000000000000000000e-01  4.15152934122360428582e-01  4.74003655093035991541e-04 1
8.24999999999999955591e-01  2.50000000000000000000e-01  3.69029369199405765656e-01  4.32909071479803397864e-04 1
8.49999999999999977796e-01  2.50000000000000000000e-01  3.20632903595422069642e-01  3.86857364681025828190e-04 1
8.75000000000000000000e-01  2.50000000000000000000e-01  2.70262293392696140160e-01  3.35756680402421459064e-04 1
9.00000000000000022204e-01  2.50000000000000000000e-01  2.18228514835311526721e-01  2.79497389099048199057e-04 1
9.25000000000000044409e-01  2.50000000000000000000e-01  1.64852849719699823261e-01  2.17950099371921890423e-04 1
9.49999999999999955591e-01  2.50000000000000000000e-01  1.10464905639350033373e-01  1.50965401887179218043e-04 1
9.74999999999999977796e-01  2.50000000000000000000e-01  5.54005828353007073739e-02  7.83757996230191600340e-05 1
1.00000000000000000000e+00  2.50000000000000000000e-01  0.00000000000000000000e+00  8.65956056235493162558e-17 1
0.00000000000000000000e+00  2.75000000000000022204e-01  0.00000000000000000000e+00  0.00000000000000000000e+00 1
2.50000000000000013878e-02  2.75000000000000022204e-01  5.96386340281205504232e-02  2.21304189166535159039e-05 1
5.00000000000000027756e-02  2.75000000000000022204e-01  1.18904685505394333567e-01  4.90149366467185210183e-05 1
7.49999999999999972244e-02  2.75000000000000022204e-01  1.77433318885902885365e-01  7.99284317974380265071e-05 1
1.00000000000000005551e-01  2.75000000000000022204e-01  2.34864203814070637844e-01  1.14162180430588122704e-04 1
1.25000000000000000000e-01  2.75000000000000022204e-01  2.90843734458479719063e-01  1.51030448230560221390e-04 1
1.49999999999999994449e-01  2.75000000000000022204e-01  3.45027208836497290001e-01  1.89875491193369771992e-04 1
1.74999999999999988898e-01  2.75000000000000022204e-01  3.97080954666974794698e-01  2.30070960486550291080e-04 1
2.00000000000000011102e-01  2.75000000000000022204e-01  4.46684388421077160913e-01  2.71023913838708274682e-04 1
2.25000000000000005551e-01  2.75000000000000022204e-01  4.93531994564670561942e-01  3.12175732898378743840e-04 1
2.50000000000000000000e-01  2.75000000000000022204e-01  5.37335212472477619094e-01  3.53002258008827674018e-04 1
2.75000000000000022204e-01  2.75000000000000022204e-01  5.77824219106725878170e-01  3.93013413389708965440e-04 1
2.99999999999999988898e-01  2.75000000000000022204e-01  6.14749596258550967676e-01  4.31752535965834738363e-04 1
3.25000000000000011102e-01  2.75000000000000022204e-01  6.47883871926006937869e-01  4.68795559035672937398e-04 1
3.49999999999999977796e-01  2.75000000000000022204e-01  6.77022926233788124861e-01  5.03750147595072306217e-04 1
3.75000000000000000000e-01  2.75000000000000022204e-01  7.01987253178476988680e-01  5.36254838873317929426e-04 1
4.00000000000000022204e-01  2.75000000000000022204e-01  7.22623070404003975398e-01  5.65978209613904326147e-04 1
4.24999999999999988898e-01  2.75000000000000022204e-01  7.38803270171317749693e-01  5.92618069102823774585e-04 1
4.50000000000000011102e-01  2.75000000000000022204e-01  7.50428205680185755888e-01  6.15900661952273331678e-04 1
4.74999999999999977796e-01  2.75000000000000022204e-01  7.57426307925719188852e-01  6.35579855028378659654e-04 1
5.00000000000000000000e-01  2.75000000000000022204e-01  7.59754529322720362217e-01  6.51436277310679656694e-04 1
5.25000000000000022204e-01  2.75000000000000022204e-01  7.57398611402428367789e-01  6.63276378319199722000e-04 1
5.50000000000000044409e-01  2.75000000000000022204e-01  7.50373174972608691924e-01  6.70931369529337295887e-04 1
5.74999999999999955591e-01  2.75000000000000022204e-01  7.38721632227297697604e-01  6.74256013122986885833e-04 1
5.99999999999999977796e-01  2.75000000000000022204e-01  7.22515921390256443679e-01  6.73127223361547066816e-04 1
6.25000000000000000000e-01  2.75000000000000022204e-01  7.01856065569537612703e-01  6.67442447812693906428e-04 1
6.50000000000000022204e-01  2.75000000000000022204e-01  6.76869558582624430976e-01  6.57117798758877214027e-04 1
6.75000000000000044409e-01  2.75000000000000022204e-01  6.47710581574973520702e-01  6.42085910069201126760e-04 1
6.99999999999999955591e-01  2.75000000000000022204e-01  6.14559055292288713979e-01  6.22293502228088435402e-04 1
7.24999999999999977796e-01  2.75000000000000022204e-01  5.77619533870554535682e-01  5.97698649561051453816e-04 1
7.50000000000000000000e-01  2.75000000000000022204e-01  5.37119946970100570205e-01  5.68267760385987585892e-04 1
7.75000000000000022204e-01  2.75000000000000022204e-01  4.93310197992645360632e-01  5.33972304923635565643e-04 1
8.00000000000000044409e-01  2.75000000000000022204e-01  4.46460626975531293947e-01  4.94785359384686262985e-04 1
8.24999999999999955591e-01  2.75000000000000022204e-01  3.96860347548150638186e-01  4.50678079310817825132e-04 1
8.49999999999999977796e-01  2.75000000000000022204e-01  3.44815468056714202749e-01  4.01616270976568046081e-04 1
8.75000000000000000000e-01  2.75000000000000022204e-01  2.90647207613803582049e-01  3.47557292906752746120e-04 1
9.00000000000000022204e-01  2.75000000000000022204e-01  2.34689918414048709350e-01  2.88447580452599883216e-04 1
9.25000000000000044409e-01  2.75000000000000022204e-01  1.77289026191926074594e-01  2.24221125774359819616e-04 1
9.49999999999999955591e-01  2.75000000000000022204e-01  1.18798901207590429374e-01  1.54799234450705980315e-04 1
9.74999999999999977796e-01  2.75000000000000022204e-01  5.95806726634696207090e-02  8.00917835676803746559e-05 1
1.00000000000000000000e+00  2.75000000000000022204e-01  0.00000000000000000000e+00  9.31228731824630421726e-17 1
0.00000000000000000000e+00  2.99999999999999988898e-01  0.00000000000000000000e+00  0.00000000000000000000e+00 1
2.50000000000000013878e-02  2.99999999999999988898e-01  6.34470758116987554320e-02  2.76659954186464496217e-05 1
5.00000000000000027756e-02  2.99999999999999988898e-01  1.26498539039775842463e-01  5.96016837245416652991e-05 1
7.49999999999999972244e-02  2.99999999999999988898e-01  1.88766149758345741505e-01  9.51168591248330308474e-05 1
1.00000000000000005551e-01  2.99999999999999988898e-01  2.49866465447864311011e-01  1.33534552135661233052e-04 1
1.25000000000000000000e-01  2.99999999999999988898e-01  3.09423203591996320849e-01  1.74196657097114293578e-04 1
1.49999999999999994449e-01  2.99999999999999988898e-01  3.67069561074215455765e-01  2.16468499853017526391e-04 1
1.74999999999999988898e-01  2.99999999999999988898e-01  4.22450476111224271225e-01  2.59742280496577659932e-04 1
2.00000000000000011102e-01  2.99999999999999988898e-01  4.75224818676758420377e-01  3.03439470818400724994e-04 1
2.25000000000000005551e-01  2.99999999999999988898e-01  5.25067495731713629326e-01  3.47012331047169553244e-04 1
2.50000000000000000000e-01  2.99999999999999988898e-01  5.71671458076362437595e-01  3.89944741321812671231e-04 1
2.75000000000000022204e-01  2.99999999999999988898e-01  6.14749596258551189720e-01  4.31752535965612693758e-04 1
2.99999999999999988898e-01  2.99999999999999988898e-01  6.54036513687537901518e-01  4.71983499935824113436e-04 1
3.25000000000000011102e-01  2.99999999999999988898e-01  6.89290165899221207724e-01  5.10217149887637333450e-04 1
3.49999999999999977796e-01  2.99999999999999988898e-01  7.20293355781738253718e-01  5.46064385604005941843e-04 1
3.75000000000000000000e-01  2.99999999999999988898e-01  7.46855075491303699309e-01  5.79167065509089695752e-04 1
4.00000000000000022204e-01  2.99999999999999988898e-01  7.68811686759640400268e-01  6.09197534172989385581e-04 1
4.24999999999999988898e-01  2.99999999999999988898e-01  7.86027932310592980514e-01  6.35858110142217825000e-04 1
4.50000000000000011102e-01  2.99999999999999988898e-01  7.98397772159071150710e-01  6.58880528386585062606e-04 1
4.74999999999999977796e-01  2.99999999999999988898e-01  8.05845039655125550127e-01  6.78025321936059910399e-04 1
5.00000000000000000000e-01  2.99999999999999988898e-01  8.08323913253890302677e-01  6.93081121057148585862e-04 1
5.25000000000000022204e-01  2.99999999999999988898e-01  8.05819201132467410886e-01  7.03863844594199150606e-04 1
5.50000000000000044409e-01  2.99999999999999988898e-01  7.98346436931134828541e-01  7.10215756322796210043e-04 1
5.74999999999999955591e-01  2.99999999999999988898e-01  7.85951786061855006693e-01  7.12004358880302667956e-04 1
5.99999999999999977796e-01  2.99999999999999988898e-01  7.68711763194981800851e-01  7.09121098831588803080e-04 1
6.25000000000000000000e-01  2.99999999999999988898e-01  7.46732762698093410769e-01  7.01479858719378235321e-04 1
6.50000000000000022204e-01  2.99999999999999988898e-01  7.20150404951638400952e-01  6.89015215703858707741e-04 1
6.75000000000000044409e-01  2.99999999999999988898e-01  6.89128702597059050738e-01  6.71680452049905341028e-04 1
6.99999999999999955591e-01  2.99999999999999988898e-01  6.53859051876578778462e-01  6.49445310894947169800e-04 1
7.24999999999999977796e-01  2.99999999999999988898e-01  6.14559055292289602157e-01  6.22293502227200256982e-04 1
7.50000000000000000000e-01  2.99999999999999988898e-01  5.71471182837782532005e-01  5.90219979901829283619e-04 1
7.75000000000000022204e-01  2.99999999999999988898e-01  5.24861280030997412460e-01  5.53228031763497440920e-04 1
8.00000000000000044409e-01  2.99999999999999988898e-01  4.75016931895195060331e-01  5.11326252381816281911e-04 1
8.24999999999999955591e-01  2.99999999999999988898e-01  4.22245692890249213480e-01  4.64525501471746427029e-04 1
8.49999999999999977796e-01  2.99999999999999988898e-01  3.66873193584903778408e-01  4.12835989164805905460e-04 1
8.75000000000000000000e-01  2.99999999999999988898e-01  3.09241135581563575396e-01  3.56264667529915257660e-04 1
9.00000000000000022204e-01  2.99999999999999988898e-01  2.49705186862360900557e-01  2.94813137639154954073e-04 1
9.25000000000000044409e-01  2.99999999999999988898e-01  1.88632790327621341353e-01  2.28476289849344205152e-04 1
9.49999999999999955591e-01  2.99999999999999988898e-01  1.26400898858421956161e-01  1.57241865078511233733e-04 1
9.74999999999999977796e-01  2.99999999999999988898e-01  6.33936507664875498191e-02  8.10910406299492070303e-05 1
1.00000000000000000000e+00  2.99999999999999988898e-01  0.00000000000000000000e+00  9.90760072617091597716e-17 1
0.00000000000000000000e+00  3.25000000000000011102e-01  0.00000000000000000000e+00  0.00000000000000000000e+00 1
2.50000000000000013878e-02  3.25000000000000011102e-01  6.68641635305860931870e-02  3.32127458770731243121e-05 1
5.00000000000000027756e-02  3.25000000000000011102e-01  1.33312130398935413389e-01  7.01775836115248186076e-05 1
7.49999999999999972244e-02  3.25000000000000011102e-01  1.98934656225848327527e-01  1.10237179951705455139e-04 1
1.00000000000000005551e-01  3.25000000000000011102e-01  2.63327555652941358577e-01  1.52745219121341868629e-04 1
1.25000000000000000000e-01  3.25000000000000011102e-01  3.26094193376421037645e-01  1.97071290937211873739e-04 1
1.49999999999999994449e-01  3.25000000000000011102e-01  3.86847929251105338011e-01  2.42605062018230732690e-04 1
1.74999999999999988898e-01  3.25000000000000011102e-01  4.45214502446472482067e-01  2.88759647711356315369e-04 1
2.00000000000000011102e-01  3.25000000000000011102e-01  5.00834339917928472730e-01  3.34974201637305846191e-04 1
2.25000000000000005551e-01  3.25000000000000011102e-01  5.53364774860807706602e-01  3.80715806884479590622e-04 1
2.50000000000000000000e-01  3.25000000000000011102e-01  6.02482161340140875971e-01  4.25480786650056508336e-04 1
2.75000000000000022204e-01  3.25000000000000011102e-01  6.47883871926006604802e-01  4.68795559036006004305e-04 1
2.99999999999999988898e-01  3.25000000000000011102e-01  6.89290165899221096701e-01  5.10217149887748355752e-04 1
3.25000000000000011102e-01  3.25000000000000011102e-01  7.26445916412485459546e-01  5.49333457287914939116e-04 1
3.49999999999999977796e-01  3.25000000000000011102e-01  7.59122185886577205416e-01  5.85763337961120456043e-04 1
3.75000000000000000000e-01  3.25000000000000011102e-01  7.87117639880448138889e-01  6.19156563357203815201e-04 1
4.00000000000000022204e-01  3.25000000000000011102e-01  8.10259790690300851779e-01  6.49193673629255840751e-04 1
4.24999999999999988898e-01  3.25000000000000011102e-01  8.28406062998993664159e-01  6.75585741856776778036e-04 1
4.50000000000000011102e-01  3.25000000000000011102e-01  8.41444675006821740659e-01  6.98074048837149518931e-04 1
4.74999999999999977796e-01  3.25000000000000011102e-01  8.49295329621767014494e-01  7.16429659890605030625e-04 1
5.00000000000000000000e-01  3.25000000000000011102e-01  8.51909711464872709819e-01  7.30452889219468382009e-04 1
5.25000000000000022204e-01  3.25000000000000011102e-01  8.49271786648072568582e-01  7.39972633585050942884e-04 1
5.50000000000000044409e-01  3.25000000000000011102e-01  8.41397903500424093615e-01  7.44845555234685541279e-04 1
5.74999999999999955591e-01  3.25000000000000011102e-01  8.28336693647218402781e-01  7.44955093632149178973e-04 1
5.99999999999999977796e-01  3.25000000000000011102e-01  8.10168774077281161894e-01  7.40210286648945725574e-04 1
6.25000000000000000000e-01  3.25000000000000011102e-01  7.87006252059536781651e-01  7.30544384268561053375e-04 1
6.50000000000000022204e-01  3.25000000000000011102e-01  7.58992035982685719908e-01  7.15913241852716986102e-04 1
6.75000000000000044409e-01  3.25000000000000011102e-01  7.26298956384028082667e-01  6.96293485745291818034e-04 1
6.99999999999999955591e-01  3.25000000000000011102e-01  6.89128702597059605850e-01  6.71680452049239207213e-04 1
7.24999999999999977796e-01  3.25000000000000011102e-01  6.47710581574973964791e-01  6.42085910068646015247e-04 1
7.50000000000000000000e-01  3.25000000000000011102e-01  6.02300106530832879415e-01  6.07535595958164087449e-04 1
7.75000000000000022204e-01  3.25000000000000011102e-01  5.53177424067975431754e-01  5.68066599716865461289e-04 1
8.00000000000000044409e-01  3.25000000000000011102e-01  5.00645589449647654412e-01  5.23724669918235186117e-04 1
8.24999999999999955591e-01  3.25000000000000011102e-01  4.45028700569475743620e-01  4.74561524708205784151e-04 1
8.49999999999999977796e-01  3.25000000000000011102e-01  3.86669902030715884056e-01  4.20632282407795710100e-04 1
8.75000000000000000000e-01  3.25000000000000011102e-01  3.25929271520640551074e-01  3.61993146717809466395e-04 1
9.00000000000000022204e-01  3.25000000000000011102e-01  2.63181601378464635754e-01  2.98699493598175713771e-04 1
9.25000000000000044409e-01  3.25000000000000011102e-01  1.98814088904744529218e-01  2.30804501055614785798e-04 1
9.49999999999999955591e-01  3.25000000000000011102e-01  1.33223949552234960381e-01  1.58358430312061093659e-04 1
9.74999999999999977796e-01  3.25000000000000011102e-01  6.68159676760195220258e-02  8.14086004437553079072e-05 1
1.00000000000000000000e+00  3.25000000000000011102e-01  0.00000000000000000000e+00  1.04418304810071211391e-16 1
0.00000000000000000000e+00  3.49999999999999977796e-01  0.00000000000000000000e+00  0.00000000000000000000e+00 1
2.50000000000000013878e-02  3.49999999999999977796e-01  6.98688640220535006620e-02  3.87021533760356639675e-05 1
5.00000000000000027756e-02  3.49999999999999977796e-01  1.39303518553132527069e-01  8.06104056303158511554e-05 1
7.49999999999999972244e-02  3.49999999999999977796e-01  2.07876242764703927923e-01  1.25099472435163949768e-04 1
1.00000000000000005551e-01  3.49999999999999977796e-01  2.75164604576097093780e-01  1.71553497061160964421e-04 1
1.25000000000000000000e-01  3.49999999999999977796e-01  3.40754064565780889762e-01  2.19370370312110818389e-04 1
1.49999999999999994449e-01  3.49999999999999977796e-01  4.04240531629281973913e-01  2.67965558191640695895e-04 1
1.74999999999999988898e-01  3.49999999999999977796e-01  4.65232854684660468436e-01  3.16775356308029998331e-04 1
2.00000000000000011102e-01  3.49999999999999977796e-01  5.23355235056723433473e-01  3.65259557575936533169e-04 1
2.25000000000000005551e-01  3.49999999999999977796e-01  5.78249544613423926975e-01  4.12903570172096223700e-04 1
2.50000000000000000000e-01  3.49999999999999977796e-01  6.29577535282106248715e-01  4.59220052944186996058e-04 1
2.75000000000000022204e-01  3.49999999999999977796e-01  6.77022926233787902817e-01  5.03750147595294350822e-04 1
2.99999999999999988898e-01  3.49999999999999977796e-01  7.20293355781738475763e-01  5.46064385603783897238e-04 1
3.25000000000000011102e-01  3.49999999999999977796e-01  7.59122185886577094394e-01  5.85763337961231478346e-04 1
3.49999999999999977796e-01  3.49999999999999977796e-01  7.93270148084435855473e-01  6.22478061800602056053e-04 1
3.75000000000000000000e-01  3.49999999999999977796e-01  8.22526820648704193317e-01  6.55870382951562191920e-04 1
4.00000000000000022204e-01  3.49999999999999977796e-01  8.46711927851473422635e-01  6.85633039369082375458e-04 1
4.24999999999999988898e-01  3.49999999999999977796e-01  8.65676453300580517336e-01  7.11489698273171100595e-04 1
4.50000000000000011102e-01  3.49999999999999977796e-01  8.79303560484953283805e-01  7.33194850097151906709e-04 1
4.74999999999999977796e-01  3.49999999999999977796e-01  8.87509314857694353584e-01  7.50533574995104757477e-04 1
5.00000000000000000000e-01  3.49999999999999977796e-01  8.90243203015948725287e-01  7.63321172419062499159e-04 1
5.25000000000000022204e-01  3.49999999999999977796e-01  8.87488445791704605448e-01  7.71402640984852894235e-04 1
5.50000000000000044409e-01  3.49999999999999977796e-01  8.79262103340891498782e-01  7.74651994158825907277e-04 1
5.74999999999999955591e-01  3.49999999999999977796e-01  8.65614971601800675671e-01  7.72971397053123787657e-04 1
5.99999999999999977796e-01  3.49999999999999977796e-01  8.46631270780100919637e-01  7.66290110741696395280e-04 1
6.25000000000000000000e-01  3.49999999999999977796e-01  8.22428127798745856047e-01  7.54563232909899461731e-04 1
6.50000000000000022204e-01  3.49999999999999977796e-01  7.93154855918683843186e-01  7.37770227552725366138e-04 1
6.75000000000000044409e-01  3.49999999999999977796e-01  7.58992035982685386841e-01  7.15913241853050053010e-04 1
6.99999999999999955591e-01  3.49999999999999977796e-01  7.20150404951639067086e-01  6.89015215703192573926e-04 1
7.24999999999999977796e-01  3.49999999999999977796e-01  6.76869558582625319154e-01  6.57117798757878013305e-04 1
7.50000000000000000000e-01  3.49999999999999977796e-01  6.29416476233512933725e-01  6.20279101537501986741e-04 1
7.75000000000000022204e-01  3.49999999999999977796e-01  5.78083876862414025588e-01  5.78571321182108633252e-04 1
8.00000000000000044409e-01  3.49999999999999977796e-01  5.23188416316052840038e-01  5.32078298246640990499e-04 1
8.24999999999999955591e-01  3.49999999999999977796e-01  4.65068736963263562600e-01  4.80893077705046856352e-04 1
8.49999999999999977796e-01  3.49999999999999977796e-01  4.04083381624607995697e-01  4.25115562865729934572e-04 1
8.75000000000000000000e-01  3.49999999999999977796e-01  3.40608584573888206748e-01  3.64850362204849343328e-04 1
9.00000000000000022204e-01  3.49999999999999977796e-01  2.75035953141330669069e-01  3.00204931827696697155e-04 1
9.25000000000000044409e-01  3.49999999999999977796e-01  2.07770054131904469141e-01  2.31288105234733754045e-04 1
9.49999999999999955591e-01  3.49999999999999977796e-01  1.39225919885870685899e-01  1.58209072892240287800e-04 1
9.74999999999999977796e-01  3.49999999999999977796e-01  6.98264893509292494667e-02  8.10768245003978815788e-05 1
1.00000000000000000000e+00  3.49999999999999977796e-01  0.00000000000000000000e+00  1.09116828786669339010e-16 1
0.00000000000000000000e+00  3.75000000000000000000e-01  0.00000000000000000000e+00  0.00000000000000000000e+00 1
2.50000000000000013878e-02  3.75000000000000000000e-01  7.24426813687082532534e-02  4.40713135914233555823e-05 1
5.00000000000000027756e-02  3.75000000000000000000e-01  1.44435821493442528851e-01  9.07789365791888958057e-05 1
7.49999999999999972244e-02  3.75000000000000000000e-01  2.15535863905795405104e-01  1.39529720325715089757e-04 1
1.00000000000000005551e-01  3.75000000000000000000e-01  2.85304737522736717725e-01  1.89738778432591015388e-04 1
1.25000000000000000000e-01  3.75000000000000000000e-01  3.53312557228763479689e-01  2.40833364510306680017e-04 1
1.49999999999999994449e-01  3.75000000000000000000e-01  4.19140274256788902818e-01  2.92256407148971941723e-04 1
1.74999999999999988898e-01  3.75000000000000000000e-01  4.82382260077658220343e-01  3.43469629930870379297e-04 1
2.00000000000000011102e-01  3.75000000000000000000e-01  5.42648807874980043664e-01  3.93956230018810416027e-04 1
2.25000000000000005551e-01  3.75000000000000000000e-01  5.99568536156079412436e-01  4.43223125578207088893e-04 1
2.50000000000000000000e-01  3.75000000000000000000e-01  6.52790679631289894047e-01  4.90802806898282817372e-04 1
2.75000000000000022204e-01  3.75000000000000000000e-01  7.01987253178476877657e-01  5.36254838873428951729e-04 1
2.99999999999999988898e-01  3.75000000000000000000e-01  7.46855075491303144197e-01  5.79167065509644807264e-04 1
3.25000000000000011102e-01  3.75000000000000000000e-01  7.87117639880447583778e-01  6.19156563357758926713e-04 1
3.49999999999999977796e-01  3.75000000000000000000e-01  8.22526820648704082295e-01  6.55870382951673214222e-04 1
3.75000000000000000000e-01  3.75000000000000000000e-01  8.52864404485520144483e-01  6.88986107753586374258e-04 1
4.00000000000000022204e-01  3.75000000000000000000e-01  8.77943437416084382363e-01  7.18212250495064985500e-04 1
4.24999999999999988898e-01  3.75000000000000000000e-01  8.97609378987098693869e-01  7.43288497943805914758e-04 1
4.50000000000000011102e-01  3.75000000000000000000e-01  9.11741056568043495290e-01  7.63985807840983355277e-04 1
4.74999999999999977796e-01  3.75000000000000000000e-01  9.20251413885846969443e-01  7.80106355913745552755e-04 1
5.00000000000000000000e-01  3.75000000000000000000e-01  9.23088049184525805124e-01  7.91483326760933358912e-04 1
5.25000000000000022204e-01  3.75000000000000000000e-01  9.20233539702056679843e-01  7.97980539704035152226e-04 1
5.50000000000000044409e-01  3.75000000000000000000e-01  9.11705550476490489409e-01  7.99491899393878213687e-04 1
5.74999999999999955591e-01  3.75000000000000000000e-01  8.97556726824109141205e-01  7.95940660933469601446e-04 1
5.99999999999999977796e-01  3.75000000000000000000e-01  8.77874371166164180202e-01  7.87278500415378168498e-04 1
6.25000000000000000000e-01  3.75000000000000000000e-01  8.52779906209190308175e-01  7.73484384083422682465e-04 1
6.50000000000000022204e-01  3.75000000000000000000e-01  8.22428127798745411958e-01  7.54563232910454573243e-04 1
6.75000000000000044409e-01  3.75000000000000000000e-01  7.87006252059536559607e-01  7.30544384268894120282e-04 1
6.99999999999999955591e-01  3.75000000000000000000e-01  7.46732762698093521792e-01  7.01479858719267213019e-04 1
7.24999999999999977796e-01  3.75000000000000000000e-01  7.01856065569539278037e-01  6.67442447811028571891e-04 1
7.50000000000000000000e-01  3.75000000000000000000e-01  6.52652958789988080213e-01  6.28523648200207674108e-04 1
7.75000000000000022204e-01  3.75000000000000000000e-01  5.99426927803532905159e-01  5.84831478124825387965e-04 1
8.00000000000000044409e-01  3.75000000000000000000e-01  5.42506275881205479727e-01  5.36488223793485374813e-04 1
8.24999999999999955591e-01  3.75000000000000000000e-01  4.82242101533061406915e-01  4.83628174527794829629e-04 1
8.49999999999999977796e-01  3.75000000000000000000e-01  4.19006135248982558572e-01  4.26395414955427209946e-04 1
8.75000000000000000000e-01  3.75000000000000000000e-01  3.53188448845493829786e-01  3.64941747780012093472e-04 1
9.00000000000000022204e-01  3.75000000000000000000e-01  2.85195051482133643539e-01  2.99424819035776224041e-04 1
9.25000000000000044409e-01  3.75000000000000000000e-01  2.15445387120042436413e-01  2.30006506078794803472e-04 1
9.49999999999999955591e-01  3.75000000000000000000e-01  1.44369748824981047886e-01  1.56851605040780883726e-04 1
9.74999999999999977796e-01  3.75000000000000000000e-01  7.24066258636881510125e-02  8.01268186116504965710e-05 1
1.00000000000000000000e+00  3.75000000000000000000e-01  0.00000000000000000000e+00  1.13142611228770026067e-16 1
0.00000000000000000000e+00  4.00000000000000022204e-01  0.00000000000000000000e+00  0.00000000000000000000e+00 1
2.50000000000000013878e-02  4.00000000000000022204e-01  7.45697721611903452388e-02  4.92620934018361822382e-05 1
5.00000000000000027756e-02  4.00000000000000022204e-01  1.48677445958804194115e-01  1.00571390853759767836e-04 1
7.49999999999999972244e-02  4.00000000000000022204e-01  2.21866366839144985024e-01  1.53367654906949590909e-04 1
1.00000000000000005551e-01  4.00000000000000022204e-01  2.93685528115321226039e-01  2.07098030915287001363e-04 1
1.25000000000000000000e-01  4.00000000000000022204e-01  3.63692351456590678982e-01  2.61220572423614960655e-04 1
1.49999999999999994449e-01  4.00000000000000022204e-01  4.31455415588415602812e-01  3.15207524973548647296e-04 1
1.74999999999999988898e-01  4.00000000000000022204e-01  4.96557116420479505159e-01  3.68548307488558712919e-04 1
2.00000000000000011102e-01  4.00000000000000022204e-01  5.58596242213927118847e-01  4.20752161020332415831e-04 1
2.25000000000000005551e-01  4.00000000000000022204e-01  6.17190447898965821594e-01  4.71350460625186151731e-04 1
2.50000000000000000000e-01  4.00000000000000022204e-01  6.71978613258976675837e-01  5.19898704980592540892e-04 1
2.75000000000000022204e-01  4.00000000000000022204e-01  7.22623070404004308465e-01  5.65978209613571259240e-04 1
2.99999999999999988898e-01  4.00000000000000022204e-01  7.68811686759640178224e-01  6.09197534173211430186e-04 1
3.25000000000000011102e-01  4.00000000000000022204e-01  8.10259790690300740756e-01  6.49193673629366863054e-04 1
3.49999999999999977796e-01  4.00000000000000022204e-01  8.46711927851473200590e-01  6.85633039369304420063e-04 1
3.75000000000000000000e-01  4.00000000000000022204e-01  8.77943437416084271341e-01  7.18212250495176007803e-04 1
4.00000000000000022204e-01  4.00000000000000022204e-01  9.03761838438150277852e-01  7.46658749323336756731e-04 1
4.24999999999999988898e-01  4.00000000000000022204e-01  9.24008017794466618433e-01  7.70731249143397079138e-04 1