Titile = 'Poisson'  
VARIABLES = X, Y, U, Error, Rank 
zone N= 966, E = 1600
DATAPACKING=POINT, ZONETYPE=FETRIANGLE
0.00000000000000000000e+00  4.37500000000000000000e-01  0.00000000000000000000e+00  0.00000000000000000000e+00 14
6.25000000000000034694e-03  4.37500000000000000000e-01  1.92596329883149945672e-02  3.19642296687724924986e-06 14
1.25000000000000006939e-02  4.37500000000000000000e-01  3.85117358857548497397e-02  6.28647791757475093988e-06 14
1.87499999999999993061e-02  4.37500000000000000000e-01  5.77448650683453981736e-02  5.24740175043836298840e-06 14
2.50000000000000013878e-02  4.37500000000000000000e-01  7.69557325062269204086e-02  4.20630260862531191179e-06 14
3.12500000000000000000e-02  4.37500000000000000000e-01  9.61369320443102720608e-02  3.16358185939447089652e-06 14
3.74999999999999986122e-02  4.37500000000000000000e-01  1.15281068965033497986e-01  2.11964148226495563421e-06 14
4.37499999999999972244e-02  4.37500000000000000000e-01  1.34380762839208467430e-01  1.07488395625909838316e-06 14
5.00000000000000027756e-02  4.37500000000000000000e-01  1.53428650371238012307e-01  2.97120258396788017308e-08 14
5.62500000000000013878e-02  4.37500000000000000000e-01  1.72417388237916496818e-01  1.01547134417900863923e-06 14
6.25000000000000000000e-02  4.37500000000000000000e-01  1.91339655919302992215e-01  2.06026324187091880447e-06 14
6.87500000000000055511e-02  4.37500000000000000000e-01  2.10188158521026929870e-01  3.10426085772808058039e-06 14
7.49999999999999972244e-02  4.37500000000000000000e-01  2.28955629586509001872e-01  4.14706173931800314847e-06 14
8.12500000000000027756e-02  4.37500000000000000000e-01  2.47634833898429523869e-01  5.18826383602566387765e-06 14
8.74999999999999944489e-02  4.37500000000000000000e-01  2.66218570267942322705e-01  6.22746575357213671964e-06 14
9.37500000000000000000e-02  4.37500000000000000000e-01  2.84699674310906147845e-01  7.26426687291947814629e-06 14
1.00000000000000005551e-01  4.37500000000000000000e-01  3.03071021209913193939e-01  8.29826748305340089473e-06 14
1.06249999999999997224e-01  4.37500000000000000000e-01  3.21325528461025466953e-01  9.32906895079188558384e-06 14
1.12500000000000002776e-01  4.37500000000000000000e-01  3.39456158604219238040e-01  1.03562738705820223117e-05 14
1.18749999999999994449e-01  4.37500000000000000000e-01  3.57455921936393750116e-01  1.13794862836025245656e-05 14
1.25000000000000000000e-01  4.37500000000000000000e-01  3.75317879206215287979e-01  1.23983116499526424548e-05 14
1.31250000000000005551e-01  4.37500000000000000000e-01  3.93035144289089477532e-01  1.34123572420041803355e-05 14
1.37500000000000011102e-01  4.37500000000000000000e-01  4.10600886842043488745e-01  1.44212321458447867428e-05 14
1.43749999999999988898e-01  4.37500000000000000000e-01  4.28008334937048262603e-01  1.54245473163450164122e-05 14
1.49999999999999994449e-01  4.37500000000000000000e-01  4.45250777671311492867e-01  1.64219161425949167210e-05 14
1.56250000000000000000e-01  4.37500000000000000000e-01  4.62321567755156537238e-01  1.74129538973999409279e-05 14
1.62500000000000005551e-01  4.37500000000000000000e-01  4.79214124073883862565e-01  1.83972786816366529195e-05 14
1.68750000000000011102e-01  4.37500000000000000000e-01  4.95921934225516225503e-01  1.93745109713372443139e-05 14
1.74999999999999988898e-01  4.37500000000000000000e-01  5.12438557031201780134e-01  2.03442740155379553357e-05 14
1.81249999999999994449e-01  4.37500000000000000000e-01  5.28757625018481780543e-01  2.13061939109415732219e-05 14
1.87500000000000000000e-01  4.37500000000000000000e-01  5.44872846875916971854e-01  2.22598999015666265677e-05 14
1.93750000000000005551e-01  4.37500000000000000000e-01  5.60778009878767580432e-01  2.32050242622294788930e-05 14
2.00000000000000011102e-01  4.37500000000000000000e-01  5.76466982283868167869e-01  2.41412026886766994949e-05 14
2.06249999999999988898e-01  4.37500000000000000000e-01  5.91933715693859330287e-01  2.50680741100683945888e-05 14
2.12499999999999994449e-01  4.37500000000000000000e-01  6.07172247388328978346e-01  2.59852814598060533058e-05 14
2.18750000000000000000e-01  4.37500000000000000000e-01  6.22176702623481236998e-01  2.68924708860529548815e-05 14
2.25000000000000005551e-01  4.37500000000000000000e-01  6.36941296896073705369e-01  2.77892927762479757803e-05 14
2.31250000000000011102e-01  4.37500000000000000000e-01  6.51460338173916686522e-01  2.86754014291457082209e-05 14
2.37499999999999988898e-01  4.37500000000000000000e-01  6.65728229090400747125e-01  2.95504550472669436090e-05 14
2.43749999999999994449e-01  4.37500000000000000000e-01  6.79739469101741655699e-01  3.04141165152760351020e-05 14
2.50000000000000000000e-01  4.37500000000000000000e-01  6.93488656608422404659e-01  3.12660526512464898019e-05 14
2.56249999999999977796e-01  4.37500000000000000000e-01  7.06970491036740034119e-01  3.21059352093033822939e-05 14
2.62500000000000011102e-01  4.37500000000000000000e-01  7.20179774882969803151e-01  3.29334403128545005757e-05 14
2.68749999999999988898e-01  4.37500000000000000000e-01  7.33111415716788394903e-01  3.37482488931284407840e-05 14
2.75000000000000022204e-01  4.37500000000000000000e-01  7.45760428144256803940e-01  3.45500470588788743953e-05 14
2.81250000000000000000e-01  4.37500000000000000000e-01  7.58121935730670992726e-01  3.53385253293314605116e-05 14
2.87499999999999977796e-01  4.37500000000000000000e-01  7.70191172879408747498e-01  3.61133798668644701024e-05 14
2.93750000000000011102e-01  4.37500000000000000000e-01  7.81963486669520757566e-01  3.68743122307613191424e-05 14
2.99999999999999988898e-01  4.37500000000000000000e-01  7.93434338650323200959e-01  3.76210286883171818317e-05 14
3.06250000000000022204e-01  4.37500000000000000000e-01  8.04599306589721674499e-01  3.83532416642351492442e-05 14
3.12500000000000000000e-01  4.37500000000000000000e-01  8.15454086180439685627e-01  3.90706684774144719086e-05 14
3.18749999999999977796e-01  4.37500000000000000000e-01  8.25994492697645910084e-01  3.97730332151180476785e-05 14
3.25000000000000011102e-01  4.37500000000000000000e-01  8.36216462614914113338e-01  4.04600641706887032001e-05 14
3.31249999999999988898e-01  4.37500000000000000000e-01  8.46116055167114966551e-01  4.11314976223042805259e-05 14
3.37500000000000022204e-01  4.37500000000000000000e-01  8.55689453874195926630e-01  4.17870733963043861081e-05 14
3.43750000000000000000e-01  4.37500000000000000000e-01  8.64932968007373736974e-01  4.24265400991163943445e-05 14
3.49999999999999977796e-01  4.37500000000000000000e-01  8.73843034017018016613e-01  4.30496501779842333235e-05 14
3.56250000000000011102e-01  4.37500000000000000000e-01  8.82416216902513372844e-01  4.36561639701738002373e-05 14
3.62499999999999988898e-01  4.37500000000000000000e-01  8.90649211538905638541e-01  4.42458474063656126418e-05 14
3.68750000000000022204e-01  4.37500000000000000000e-01  8.98538843950130394767e-01  4.48184730627021465921e-05 14
3.75000000000000000000e-01  4.37500000000000000000e-01  9.06082072532238713691e-01  4.53738206490639228718e-05 14
3.81249999999999977796e-01  4.37500000000000000000e-01  9.13275989227467110965e-01  4.59116756218458377248e-05 14
3.87500000000000011102e-01  4.37500000000000000000e-01  9.20117820643874595454e-01  4.64318307403788210763e-05 14
3.93749999999999988898e-01  4.37500000000000000000e-01  9.26604929125260157186e-01  4.69340854243327498807e-05 14
4.00000000000000022204e-01  4.37500000000000000000e-01  9.32734813767469250756e-01  4.74182463924277541878e-05 14
4.06250000000000000000e-01  4.37500000000000000000e-01  9.38505111383838075412e-01  4.78841264379692432840e-05 14
4.12499999999999977796e-01  4.37500000000000000000e-01  9.43913597414099303506e-01  4.83315466486278211278e-05 14
4.18750000000000011102e-01  4.37500000000000000000e-01  9.48958186784987223206e-01  4.87603334814457056723e-05 14
4.24999999999999988898e-01  4.37500000000000000000e-01  9.53636934709921391118e-01  4.91703229806850217187e-05 14
4.31250000000000022204e-01  4.37500000000000000000e-01  9.57948037443782540734e-01  4.95613558179064384035e-05 14
4.37500000000000000000e-01  4.37500000000000000000e-01  9.61889832973286340589e-01  4.99332823570286521431e-05 14
4.43749999999999977796e-01  4.37500000000000000000e-01  9.65460801662364365150e-01  5.02859580697734287469e-05 14
4.50000000000000011102e-01  4.37500000000000000000e-01  9.68659566833602103664e-01  5.06192480014266976696e-05 14
4.56249999999999988898e-01  4.37500000000000000000e-01  9.71484895302737627709e-01  5.09330230593629806890e-05 14
4.62500000000000022204e-01  4.37500000000000000000e-01  9.73935697851401549485e-01  5.12271627391980288735e-05 14
4.68750000000000000000e-01  4.37500000000000000000e-01  9.76011029649350603243e-01  5.15015528521622911740e-05 14
4.74999999999999977796e-01  4.37500000000000000000e-01  9.77710090615558025107e-01  5.17560887287604742824e-05 14
4.81250000000000011102e-01  4.37500000000000000000e-01  9.79032225730763983051e-01  5.19906711545781163863e-05 14
4.87499999999999988898e-01  4.37500000000000000000e-01  9.79976925285956701472e-01  5.22052104504622249692e-05 14
4.93750000000000022204e-01  4.37500000000000000000e-01  9.80543825081863662518e-01  5.23996235183288305848e-05 14
5.00000000000000000000e-01  4.37500000000000000000e-01  9.80732706567463363712e-01  5.25738357670668676747e-05 14
5.06249999999999977796e-01  4.37500000000000000000e-01  9.80543496925837643197e-01  5.27277795443481522852e-05 14
5.12499999999999955591e-01  4.37500000000000000000e-01  9.79976269100670260848e-01  5.28613957369028497624e-05 14
5.18750000000000044409e-01  4.37500000000000000000e-01  9.79031241768634874489e-01  5.29746332836866784533e-05 14
5.25000000000000022204e-01  4.37500000000000000000e-01  9.77708779256893922849e-01  5.30674473928627321584e-05 14
5.31250000000000000000e-01  4.37500000000000000000e-01  9.76009391398475978363e-01  5.31398037268981937586e-05 14
5.37499999999999977796e-01  4.37500000000000000000e-01  9.73933733340984431059e-01  5.31916731563164546515e-05 14
5.43749999999999955591e-01  4.37500000000000000000e-01  9.71482605289345935162e-01  5.32230364510555276070e-05 14
5.50000000000000044409e-01  4.37500000000000000000e-01  9.68656952200434129274e-01  5.32338811692900648609e-05 14
5.56250000000000022204e-01  4.37500000000000000000e-01  9.65457863417302331044e-01  5.32242031318075348167e-05 14
5.62500000000000000000e-01  4.37500000000000000000e-01  9.61886572249328275497e-01  5.31940063150937447745e-05 14
5.68749999999999977796e-01  4.37500000000000000000e-01  9.57944455497613533979e-01  5.31433019869131939572e-05 14
5.74999999999999955591e-01  4.37500000000000000000e-01  9.53633032923011714210e-01  5.30721098904729515766e-05 14
5.81250000000000044409e-01  4.37500000000000000000e-01  9.48953966660841641279e-01  5.29804576270276328387e-05 14
5.87500000000000022204e-01  4.37500000000000000000e-01  9.43909060580391368056e-01  5.28683803565632715049e-05 14
5.93750000000000000000e-01  4.37500000000000000000e-01  9.38500259589061025522e-01  5.27359212150191325463e-05 14
5.99999999999999977796e-01  4.37500000000000000000e-01  9.32729648882204553928e-01  5.25831316572356044503e-05 14
6.06249999999999955591e-01  4.37500000000000000000e-01  9.26599453140671047713e-01  5.24100700134422226029e-05 14
6.12500000000000044409e-01  4.37500000000000000000e-01  9.20112035671128425385e-01  5.22168034864378682869e-05 14
6.18750000000000022204e-01  4.37500000000000000000e-01  9.13269897496687521610e-01  5.20034064015462149655e-05 14
6.25000000000000000000e-01  4.37500000000000000000e-01  9.06075676392076312382e-01  5.17699608114652320978e-05 14
6.31249999999999977796e-01  4.37500000000000000000e-01  8.98532145866110742993e-01  5.15165570823539198386e-05 14
6.37499999999999955591e-01  4.37500000000000000000e-01  8.90642214094055084672e-01  5.12432922570305038334e-05 14
6.43750000000000044409e-01  4.37500000000000000000e-01  8.82408922793199379520e-01  5.09502732840561023409e-05 14
6.50000000000000022204e-01  4.37500000000000000000e-01  8.73835446056503650780e-01  5.06376106924610880355e-05 14
6.56250000000000000000e-01  4.37500000000000000000e-01  8.64925089120097245754e-01  5.03054273757186365401e-05 14
6.62499999999999977796e-01  4.37500000000000000000e-01  8.55681287097792231400e-01  4.99538498002216613258e-05 14
6.68749999999999955591e-01  4.37500000000000000000e-01  8.46107603650445128096e-01  4.95830142923647798625e-05 14
6.75000000000000044409e-01  4.37500000000000000000e-01  8.36207729615499051334e-01  4.91930635858617293366e-05 14
6.81250000000000022204e-01  4.37500000000000000000e-01  8.25985481583129899086e-01  4.87841477312400684241e-05 14
6.87500000000000000000e-01  4.37500000000000000000e-01  8.15444800424136029271e-01  4.83564247812928726944e-05 14
6.93749999999999977796e-01  4.37500000000000000000e-01  8.04589749771470463813e-01  4.79100599154458350881e-05 14
6.99999999999999955591e-01  4.37500000000000000000e-01  7.93424514454903362370e-01  4.74452241081557701818e-05 14
7.06250000000000044409e-01  4.37500000000000000000e-01  7.81953398883574957168e-01  4.69620981765617173664e-05 14
7.12500000000000022204e-01  4.37500000000000000000e-01  7.70180825392899781612e-01  4.64608663758303563895e-05 14
7.18750000000000000000e-01  4.37500000000000000000e-01  7.58111332531888892916e-01  4.59417241115422925191e-05 14
7.24999999999999977796e-01  4.37500000000000000000e-01  7.45749573321629277700e-01  4.54048696864051137823e-05 14
7.31249999999999955591e-01  4.37500000000000000000e-01  7.33100313454823959702e-01  4.48505108578967082167e-05 14
7.37500000000000044409e-01  4.37500000000000000000e-01  7.20168429461474413067e-01  4.42788618081335627608e-05 14
7.43750000000000022204e-01  4.37500000000000000000e-01  7.06958906830367106444e-01  4.36901415824531014209e-05 14
7.50000000000000000000e-01  4.37500000000000000000e-01  6.93476838082261459739e-01  4.30845788123024320271e-05 14
7.56249999999999977796e-01  4.37500000000000000000e-01  6.79727420812427096664e-01  4.24624058298350703922e-05 14
7.62499999999999955591e-01  4.37500000000000000000e-01  6.65715955682877780220e-01  4.18238625705669164745e-05 14
7.68750000000000044409e-01  4.37500000000000000000e-01  6.51447844379688612015e-01  4.11691956569981698522e-05 14
7.75000000000000022204e-01  4.37500000000000000000e-01  6.36928587531711887237e-01  4.04986571381771298661e-05 14
7.81250000000000000000e-01  4.37500000000000000000e-01  6.22163782588711966604e-01  3.98125056553233491741e-05 14
7.87499999999999977796e-01  4.37500000000000000000e-01  6.07159121664073153646e-01  3.91110057158527979482e-05 14
7.93749999999999955591e-01  4.37500000000000000000e-01  5.91920389340548469548e-01  3.83944274210401559344e-05 14
8.00000000000000044409e-01  4.37500000000000000000e-01  5.76453460438474230010e-01  3.76630480827255809118e-05 14
8.06250000000000022204e-01  4.37500000000000000000e-01  5.60764297754973828347e-01  3.69171480559815634592e-05 14
8.12500000000000000000e-01  4.37500000000000000000e-01  5.44858949759373323296e-01  3.61570164452151843193e-05 14
8.18749999999999977796e-01  4.37500000000000000000e-01  5.28743548267135210494e-01  3.53829452577336667218e-05 14
8.24999999999999955591e-01  4.37500000000000000000e-01  5.12424306071820101494e-01  3.45952333973276182633e-05 14
8.31250000000000044409e-01  4.37500000000000000000e-01  4.95907514552053341195e-01  3.37941844342215524932e-05 14
8.37500000000000022204e-01  4.37500000000000000000e-01  4.79199541245580451498e-01  3.29801069849922079413e-05 14
8.43750000000000000000e-01  4.37500000000000000000e-01  4.62306827393883401633e-01  3.21533151707575903799e-05 14
8.49999999999999977796e-01  4.37500000000000000000e-01  4.45235885459607738657e-01  3.13141278464601491294e-05 14
8.56249999999999955591e-01  4.37500000000000000000e-01  4.27993296616414276023e-01  3.04628679507756849887e-05 14
8.62500000000000044409e-01  4.37500000000000000000e-01  4.10585708209652233691e-01  2.95998645369333068800e-05 14
8.68750000000000022204e-01  4.37500000000000000000e-01  3.93019831197098434838e-01  2.87254492332689181922e-05 14
8.75000000000000000000e-01  4.37500000000000000000e-01  3.75302437557586132666e-01  2.78399602792189782008e-05 14
8.81249999999999977796e-01  4.37500000000000000000e-01  3.57440357684563614349e-01  2.69437381137382914176e-05 14
8.87499999999999955591e-01  4.37500000000000000000e-01  3.39440477749447411249e-01  2.60371286427418802134e-05 14
8.93750000000000044409e-01  4.37500000000000000000e-01  3.21309737048368682100e-01  2.51204816074657166780e-05 14
9.00000000000000022204e-01  4.37500000000000000000e-01  3.03055125327627794540e-01  2.41941497685638218229e-05 14
9.06250000000000000000e-01  4.37500000000000000000e-01  2.84683680086756152328e-01  2.32584910229705066342e-05 14
9.12499999999999977796e-01  4.37500000000000000000e-01  2.66202483868229478059e-01  2.23138654666943381244e-05 14
9.18749999999999955591e-01  4.37500000000000000000e-01  2.47618661524767247339e-01  2.13606374985242375431e-05 14
9.25000000000000044409e-01  4.37500000000000000000e-01  2.28939377473514588113e-01  2.03991747338705398107e-05 14
9.31250000000000022204e-01  4.37500000000000000000e-01  2.10171832934368252310e-01  1.94298475163778849861e-05 14
9.37500000000000000000e-01  4.37500000000000000000e-01  1.91323263152717082392e-01  1.84530298281415650052e-05 14
9.43749999999999977796e-01  4.37500000000000000000e-01  1.72400934611127654161e-01  1.74690981332437100804e-05 14
9.49999999999999955591e-01  4.37500000000000000000e-01  1.53412142227526554494e-01  1.64784316857291557312e-05 14
9.56250000000000044409e-01  4.37500000000000000000e-01  1.34364206542575553849e-01  1.54814126766822379722e-05 14
9.62500000000000022204e-01  4.37500000000000000000e-01  1.15264470898471887983e-01  1.44784250792479030068e-05 14
9.68750000000000000000e-01  4.37500000000000000000e-01  9.61202986065173431429e-02  1.34698559337564915950e-05 14
9.74999999999999977796e-01  4.37500000000000000000e-01  7.69390701097792117924e-02  1.24560938392082043435e-05 14
9.81249999999999955591e-01  4.37500000000000000000e-01  5.77281801369524671941e-02  1.14375296429367057094e-05 14
9.87500000000000044409e-01  4.37500000000000000000e-01  3.84950348516998192006e-02  1.04145561373517048231e-05 14
9.93750000000000022204e-01  4.37500000000000000000e-01  1.92511757053491737446e-02  5.26085999917255686675e-06 14
1.00000000000000000000e+00  4.37500000000000000000e-01  0.00000000000000000000e+00  1.20111555429665550461e-16 14
0.00000000000000000000e+00  4.43749999999999977796e-01  0.00000000000000000000e+00  0.00000000000000000000e+00 14
6.25000000000000034694e-03  4.43749999999999977796e-01  1.93307028745020176297e-02  2.77438655332112871221e-06 14
1.25000000000000006939e-02  4.43749999999999977796e-01  3.86538586570490810823e-02  5.45296550772539356799e-06 14
1.87499999999999993061e-02  4.43749999999999977796e-01  5.79583940568234867730e-02  4.41085778960653707159e-06 14
2.50000000000000013878e-02  4.43749999999999977796e-01  7.72405853924024027313e-02  3.36704960372802286628e-06 14
3.12500000000000000000e-02  4.43749999999999977796e-01  9.64929990119675062843e-02  2.32194335285373920641e-06 14
3.74999999999999986122e-02  4.43749999999999977796e-01  1.15708212743589861082e-01  1.27594195320490655376e-06 14
4.37499999999999972244e-02  4.43749999999999977796e-01  1.34878818756584889504e-01  2.29448645500118786345e-07 14
5.00000000000000027756e-02  4.43749999999999977796e-01  1.53997426417425448131e-01  8.17133107150480597625e-07 14
5.62500000000000013878e-02  4.43749999999999977796e-01  1.73056665138895504619e-01  1.86339985097649929457e-06 14
6.25000000000000000000e-02  4.43749999999999977796e-01  1.92049187221683820281e-01  2.90894820512144214320e-06 14
6.87500000000000055511e-02  4.43749999999999977796e-01  2.10967670686959707371e-01  3.95337511949200859362e-06 14
7.49999999999999972244e-02  4.43749999999999977796e-01  2.29804822099245409373e-01  4.99627791955559175108e-06 14
8.12500000000000027756e-02  4.43749999999999977796e-01  2.48553379378060879112e-01  6.03725457562487299867e-06 14
8.74999999999999944489e-02  4.43749999999999977796e-01  2.67206114597703048297e-01  7.07590374826594370461e-06 14
9.37500000000000000000e-02  4.43749999999999977796e-01  2.85755836773673332907e-01  8.11182501880836070995e-06 14
1.00000000000000005551e-01  4.43749999999999977796e-01  3.04195394634956484126e-01  9.14461902629115641616e-06 14
1.06249999999999997224e-01  4.43749999999999977796e-01  3.22517679380985189397e-01  1.01738876076562512196e-05 14
1.12500000000000002776e-01  4.43749999999999977796e-01  3.40715627422191025264e-01  1.11992339785205174962e-05 14
1.18749999999999994449e-01  4.43749999999999977796e-01  3.58782223103230935024e-01  1.22202628076162334025e-05 14
1.25000000000000000000e-01  4.43749999999999977796e-01  3.76710501407517828198e-01  1.32365805076695153275e-05 14
1.31250000000000005551e-01  4.43749999999999977796e-01  3.94493550642508905568e-01  1.42477952448927247531e-05 14
1.37500000000000011102e-01  4.43749999999999977796e-01  4.12124515104215438654e-01  1.52535171696888127713e-05 14
1.43749999999999988898e-01  4.43749999999999977796e-01  4.29596597720115935815e-01  1.62533586576807387303e-05 14
1.49999999999999994449e-01  4.43749999999999977796e-01  4.46903062670001405277e-01  1.72469340154468575577e-05 14
1.56250000000000000000e-01  4.43749999999999977796e-01  4.64037237981866856895e-01  1.82338605237974960005e-05 14
1.62500000000000005551e-01  4.43749999999999977796e-01  4.80992518105270827622e-01  1.92137573986062015763e-05 14
1.68750000000000011102e-01  4.43749999999999977796e-01  4.97762366456747706867e-01  2.01862470905478375016e-05 14
1.74999999999999988898e-01  4.43749999999999977796e-01  5.14340317940679803144e-01  2.11509545358090633727e-05 14
1.81249999999999994449e-01  4.43749999999999977796e-01  5.30719981441032606639e-01  2.21075079830379550572e-05 14
1.87500000000000000000e-01  4.43749999999999977796e-01  5.46895042285970300888e-01  2.30555384180819444850e-05 14
1.93750000000000005551e-01  4.43749999999999977796e-01  5.62859264681298987476e-01  2.39946806888102770472e-05 14
2.00000000000000011102e-01  4.43749999999999977796e-01  5.78606494115847747040e-01  2.49245722826474391809e-05 14
2.06249999999999988898e-01  4.43749999999999977796e-01  5.94130659732345689505e-01  2.58448552704626521859e-05 14
2.12499999999999994449e-01  4.43749999999999977796e-01  6.09425776669970220567e-01  2.67551743269311970153e-05 14
2.18750000000000000000e-01  4.43749999999999977796e-01  6.24485948369506660427e-01  2.76551789862855557089e-05 14
2.25000000000000005551e-01  4.43749999999999977796e-01  6.39305368848490318534e-01  2.85445218703994640919e-05 14
2.31250000000000011102e-01  4.43749999999999977796e-01  6.53878324937956167950e-01  2.94228603907598085243e-05 14
2.37499999999999988898e-01  4.43749999999999977796e-01  6.68199198486077228232e-01  3.02898557763553455402e-05 14
2.43749999999999994449e-01  4.43749999999999977796e-01  6.82262468523383791563e-01  3.11451738910228925761e-05 14
2.50000000000000000000e-01  4.43749999999999977796e-01  6.96062713391567777776e-01  3.19884849950824445841e-05 14
2.56249999999999977796e-01  4.43749999999999977796e-01  7.09594612833683857644e-01  3.28194638251622095027e-05 14
2.62500000000000011102e-01  4.43749999999999977796e-01  7.22852950044714948064e-01  3.36377902140361229044e-05 14
2.68749999999999988898e-01  4.43749999999999977796e-01  7.35832613683436886909e-01  3.44431485260754399746e-05 14
2.75000000000000022204e-01  4.43749999999999977796e-01  7.48528599842442132761e-01  3.52352282766421609495e-05 14
2.81250000000000000000e-01  4.43749999999999977796e-01  7.60936013977148717480e-01  3.60137243416991381650e-05 14
2.87499999999999977796e-01  4.43749999999999977796e-01  7.73050072793412312855e-01  3.67783364059182105166e-05 14
2.93750000000000011102e-01  4.43749999999999977796e-01  7.84866106090956638930e-01  3.75287696980919349699e-05 14
2.99999999999999988898e-01  4.43749999999999977796e-01  7.96379558564136336152e-01  3.82647347922926428510e-05 14
3.06250000000000022204e-01  4.43749999999999977796e-01  8.07585991557551952091e-01  3.89859482624599351652e-05 14
3.12500000000000000000e-01  4.43749999999999977796e-01  8.18481084778039269523e-01  3.96921319880672029967e-05 14
3.18749999999999977796e-01  4.43749999999999977796e-01  8.29060637960007063008e-01  4.03830134789728845135e-05 14
3.25000000000000011102e-01  4.43749999999999977796e-01  8.39320572484095195342e-01  4.10583266048369921464e-05 14
3.31249999999999988898e-01  4.43749999999999977796e-01  8.49256932950445908581e-01  4.17178108115257018085e-05 14
3.37500000000000022204e-01  4.43749999999999977796e-01  8.58865888702426971690e-01  4.23612123804373297276e-05 14
3.43750000000000000000e-01  4.43749999999999977796e-01  8.68143735305350938702e-01  4.29882825981886540490e-05 14
3.49999999999999977796e-01  4.43749999999999977796e-01  8.77086895972384761322e-01  4.35987800730952557160e-05 14
3.56250000000000011102e-01  4.43749999999999977796e-01  8.85691922944930154493e-01  4.41924693672657298293e-05 14
3.62499999999999988898e-01  4.43749999999999977796e-01  8.93955498821184857405e-01  4.47691217017043285864e-05 14
3.68750000000000022204e-01  4.43749999999999977796e-01  9.01874437835430420307e-01  4.53285146805315619645e-05 14
3.75000000000000000000e-01  4.43749999999999977796e-01  9.09445687085884246770e-01  4.58704326952164009867e-05 14
3.81249999999999977796e-01  4.43749999999999977796e-01  9.16666327712071904443e-01  4.63946665892889242855e-05 14
3.87500000000000011102e-01  4.43749999999999977796e-01  9.23533576019304414118e-01  4.69010145373038866978e-05 14
3.93749999999999988898e-01  4.43749999999999977796e-01  9.30044784552632952668e-01  4.73892813342979835056e-05 14
4.00000000000000022204e-01  4.43749999999999977796e-01  9.36197443117312788630e-01  4.78592786532505698460e-05 14
4.06250000000000000000e-01  4.43749999999999977796e-01  9.41989179746519189607e-01  4.83108251279062983485e-05 14
4.12499999999999977796e-01  4.43749999999999977796e-01  9.47417761615155895605e-01  4.87437470532148253710e-05 14
4.18750000000000011102e-01  4.43749999999999977796e-01  9.52481095901753116451e-01  4.91578773514911304687e-05 14
4.24999999999999988898e-01  4.43749999999999977796e-01  9.57177230594808858832e-01  4.95530561169799099730e-05 14
4.31250000000000022204e-01  4.43749999999999977796e-01  9.61504355244509834044e-01  4.99291314950411901918e-05 14
4.37500000000000000000e-01  4.43749999999999977796e-01  9.65460801662364698217e-01  5.02859580694403618395e-05 14
4.43749999999999977796e-01  4.43749999999999977796e-01  9.69045044562551249889e-01  5.06233986907744792916e-05 14
4.50000000000000011102e-01  4.43749999999999977796e-01  9.72255702151640255337e-01  5.09413228312327603930e-05 14
4.56249999999999988898e-01  4.43749999999999977796e-01  9.75091536659897228922e-01  5.12396080409871501615e-05 14
4.62500000000000022204e-01  4.43749999999999977796e-01  9.77551454818953557968e-01  5.15181395087660476406e-05 14
4.68750000000000000000e-01  4.43749999999999977796e-01  9.79634508283477534185e-01  5.17768099099757961312e-05 14
4.74999999999999977796e-01  4.43749999999999977796e-01  9.81339893997066337050e-01  5.20155191618965062617e-05 14
4.81250000000000011102e-01  4.43749999999999977796e-01  9.82666954500781564263e-01  5.22341755199162705026e-05 14
4.87499999999999988898e-01  4.43749999999999977796e-01  9.83615178187690952782e-01  5.24326945338104977168e-05 14
4.93750000000000022204e-01  4.43749999999999977796e-01  9.84184199499341438866e-01  5.26109998425505764885e-05 14
5.00000000000000000000e-01  4.43749999999999977796e-01  9.84373799067279064978e-01  5.27690226125310246630e-05 14
5.06249999999999977796e-01  4.43749999999999977796e-01  9.84183903797173575967e-01  5.29067020104134755343e-05 14
5.12499999999999955591e-01  4.43749999999999977796e-01  9.83614586897664566756e-01  5.30239845601965242849e-05 14
5.18750000000000044409e-01  4.43749999999999977796e-01  9.82666067850803348627e-01  5.31208254981319072385e-05 14
5.25000000000000022204e-01  4.43749999999999977796e-01  9.81338712328627238435e-01  5.31971876009951216702e-05 14
5.31250000000000000000e-01  4.43749999999999977796e-01  9.79633032052496632858e-01  5.32530408909881458612e-05 14
5.37499999999999977796e-01  4.43749999999999977796e-01  9.77549684594327228382e-01  5.32883641350956338556e-05 14
5.43749999999999955591e-01  4.43749999999999977796e-01  9.75089473124198580223e-01  5.33031437396358498404e-05 14
5.50000000000000044409e-01  4.43749999999999977796e-01  9.72253346100637516614e-01  5.32973738338604619003e-05 14
5.56250000000000022204e-01  4.43749999999999977796e-01  9.69042396904387537404e-01  5.32710568544869644825e-05 14
5.62500000000000000000e-01  4.43749999999999977796e-01  9.65457863417337525114e-01  5.32242030966134649361e-05 14
5.68749999999999977796e-01  4.43749999999999977796e-01  9.61501127545878686576e-01  5.31568301261886588804e-05 14
5.74999999999999955591e-01  4.43749999999999977796e-01  9.57173714686474164104e-01  5.30689644517856606853e-05 14
5.81250000000000044409e-01  4.43749999999999977796e-01  9.52477293139838421254e-01  5.29606392661863267790e-05 14
5.87500000000000022204e-01  4.43749999999999977796e-01  9.47413673464995609308e-01  5.28318972135011222235e-05 14
5.93750000000000000000e-01  4.43749999999999977796e-01  9.41984807784406297237e-01  5.26827872407986674830e-05 14
5.99999999999999977796e-01  4.43749999999999977796e-01  9.36192789028848393329e-01  5.25133671177568928101e-05 14
6.06249999999999955591e-01  4.43749999999999977796e-01  9.30039850132048817599e-01  5.23237019185440743740e-05 14
6.12500000000000044409e-01  4.43749999999999977796e-01  9.23528363168718224863e-01  5.21138651233821192932e-05 14
6.18750000000000022204e-01  4.43749999999999977796e-01  9.16660838441412884059e-01  5.18839372484203309455e-05 14
6.25000000000000000000e-01  4.43749999999999977796e-01  9.09439923511125347666e-01  5.16340074541155047427e-05 14