Titile = 'Poisson'  
VARIABLES = X, Y, U, Error, Rank 
zone N= 3381, E = 6400
DATAPACKING=POINT, ZONETYPE=FETRIANGLE
0.00000000000000000000e+00  5.00000000000000000000e-01  0.00000000000000000000e+00  0.00000000000000000000e+00 4
6.25000000000000034694e-03  5.00000000000000000000e-01  1.96326400197502672074e-02  1.05244087803338381981e-06 4
1.25000000000000006939e-02  5.00000000000000000000e-01  3.92577112830491958828e-02  2.10447601941415873839e-06 4
1.87499999999999993061e-02  5.00000000000000000000e-01  5.88676479513425138235e-02  3.15569984651875579118e-06 4
2.50000000000000013878e-02  5.00000000000000000000e-01  7.84548900207548277619e-02  4.20570709011580667891e-06 4
3.12500000000000000000e-02  5.00000000000000000000e-01  9.80118862366062132407e-02  5.25409295439038803721e-06 4
3.74999999999999986122e-02  5.00000000000000000000e-01  1.17531097004575479925e-01  6.30045326216466250457e-06 4
4.37499999999999972244e-02  5.00000000000000000000e-01  1.37004997297334923934e-01  7.34438463309561306858e-06 4
5.00000000000000027756e-02  5.00000000000000000000e-01  1.56426079555633895657e-01  8.38548459697330272888e-06 4
5.62500000000000013878e-02  5.00000000000000000000e-01  1.75786856582555717221e-01  9.42335179879294493333e-06 4
6.25000000000000000000e-02  5.00000000000000000000e-01  1.95079864430006660880e-01  1.04575861215872034649e-05 4
6.87500000000000055511e-02  5.00000000000000000000e-01  2.14297665276206805718e-01  1.14877888439668396359e-05 4
7.49999999999999972244e-02  5.00000000000000000000e-01  2.33432850293104926509e-01  1.25135628004646726197e-05 4
8.12500000000000027756e-02  5.00000000000000000000e-01  2.52478042502611021991e-01  1.35345125469310545441e-05 4
8.74999999999999944489e-02  5.00000000000000000000e-01  2.71425899620601485118e-01  1.45502444727774182809e-05 4
9.37500000000000000000e-02  5.00000000000000000000e-01  2.90269116887440947750e-01  1.55603670213833034097e-05 4
1.00000000000000005551e-01  5.00000000000000000000e-01  3.09000429884206617714e-01  1.65644907407780372921e-05 4
1.06249999999999997224e-01  5.00000000000000000000e-01  3.27612617333171207701e-01  1.75622285222831742146e-05 4
1.12500000000000002776e-01  5.00000000000000000000e-01  3.46098503881754115952e-01  1.85531957388462842573e-05 4
1.18749999999999994449e-01  5.00000000000000000000e-01  3.64450962868811290107e-01  1.95370103383551985132e-05 4
1.25000000000000000000e-01  5.00000000000000000000e-01  3.82662919071999119147e-01  2.05132930906626320677e-05 4
1.31250000000000005551e-01  5.00000000000000000000e-01  4.00727351435629708387e-01  2.14816675112583510554e-05 4
1.37500000000000011102e-01  5.00000000000000000000e-01  4.18637295777023965559e-01  2.24417604041682317018e-05 4
1.43749999999999988898e-01  5.00000000000000000000e-01  4.36385847471825627508e-01  2.33932015163973439087e-05 4
1.49999999999999994449e-01  5.00000000000000000000e-01  4.53966164115411519031e-01  2.43356241352299385028e-05 4
1.56250000000000000000e-01  5.00000000000000000000e-01  4.71371468161123519103e-01  2.52686648741229369364e-05 4
1.62500000000000005551e-01  5.00000000000000000000e-01  4.88595049532830671968e-01  2.61919641242336354026e-05 4
1.68750000000000011102e-01  5.00000000000000000000e-01  5.05630268212174938114e-01  2.71051658096155279054e-05 4
1.74999999999999988898e-01  5.00000000000000000000e-01  5.22470556797945406835e-01  2.80079180033920849269e-05 4
1.81249999999999994449e-01  5.00000000000000000000e-01  5.39109423038469870448e-01  2.88998725302969106110e-05 4
1.87500000000000000000e-01  5.00000000000000000000e-01  5.55540452333947665231e-01  2.97806856545124176705e-05 4
1.93750000000000005551e-01  5.00000000000000000000e-01  5.71757310209803470968e-01  3.06500178087754093781e-05 4
2.00000000000000011102e-01  5.00000000000000000000e-01  5.87753744758779173019e-01  3.15075336939640848755e-05 4
2.06249999999999988898e-01  5.00000000000000000000e-01  6.03523589050655062671e-01  3.23529029163660553081e-05 4
2.12499999999999994449e-01  5.00000000000000000000e-01  6.19060763510430156487e-01  3.31857994038120551750e-05 4
2.18750000000000000000e-01  5.00000000000000000000e-01  6.34359278261472758764e-01  3.40059021727290300419e-05 4
2.25000000000000005551e-01  5.00000000000000000000e-01  6.49413235435223890057e-01  3.48128949597681369710e-05 4
2.31250000000000011102e-01  5.00000000000000000000e-01  6.64216831444469857360e-01  3.56064668118882821091e-05 4
2.37499999999999988898e-01  5.00000000000000000000e-01  6.78764359221332047589e-01  3.63863116096263539134e-05 4
2.43749999999999994449e-01  5.00000000000000000000e-01  6.93050210416756518050e-01  3.71521288793363879677e-05 4
2.50000000000000000000e-01  5.00000000000000000000e-01  7.07068877563425735033e-01  3.79036231217266816884e-05 4
2.56249999999999977796e-01  5.00000000000000000000e-01  7.20814956197842637842e-01  3.86405050760707524660e-05 4
2.62500000000000011102e-01  5.00000000000000000000e-01  7.34283146945522435800e-01  3.93624901631195456275e-05 4
2.68749999999999988898e-01  5.00000000000000000000e-01  7.47468257562244442482e-01  4.00693003522745172518e-05 4
2.75000000000000022204e-01  5.00000000000000000000e-01  7.60365204937147098896e-01  4.07606628839429774303e-05 4
2.81250000000000000000e-01  5.00000000000000000000e-01  7.72969017050974316341e-01  4.14363117626770360857e-05 4
2.87499999999999977796e-01  5.00000000000000000000e-01  7.85274834894863604795e-01  4.20959858812297582631e-05 4
2.93750000000000011102e-01  5.00000000000000000000e-01  7.97277914341415150368e-01  4.27394312919604502099e-05 4
2.99999999999999988898e-01  5.00000000000000000000e-01  8.08973627975300813020e-01  4.33663996466382428707e-05 4
3.06250000000000022204e-01  5.00000000000000000000e-01  8.20357466875844765219e-01  4.39766496689308894474e-05 4
3.12500000000000000000e-01  5.00000000000000000000e-01  8.31425042356694898871e-01  4.45699458503368006745e-05 4
3.18749999999999977796e-01  5.00000000000000000000e-01  8.42172087657105827851e-01  4.51460591806007727200e-05 4
3.25000000000000011102e-01  5.00000000000000000000e-01  8.52594459585802599833e-01  4.57047682895783680124e-05 4
3.31249999999999988898e-01  5.00000000000000000000e-01  8.62688140120752122719e-01  4.62458570396062640384e-05 4
3.37500000000000022204e-01  5.00000000000000000000e-01  8.72449237955558620783e-01  4.67691172384432363174e-05 4
3.43750000000000000000e-01  5.00000000000000000000e-01  8.81873990001514118653e-01  4.72743468408198808106e-05 4
3.49999999999999977796e-01  5.00000000000000000000e-01  8.90958762836668527463e-01  4.77613516992603237554e-05 4
3.56250000000000011102e-01  5.00000000000000000000e-01  8.99700054108890423521e-01  4.82299433310906522365e-05 4
3.62499999999999988898e-01  5.00000000000000000000e-01  9.08094493883620734742e-01  4.86799414605165736702e-05 4
3.68750000000000022204e-01  5.00000000000000000000e-01  9.16138845944700297430e-01  4.91111724356674272940e-05 4
3.75000000000000000000e-01  5.00000000000000000000e-01  9.23830009040954136523e-01  4.95234703326019598535e-05 4
3.81249999999999977796e-01  5.00000000000000000000e-01  9.31165018082815154621e-01  4.99166759883040711543e-05 4
3.87500000000000011102e-01  5.00000000000000000000e-01  9.38141045284995089837e-01  5.02906374890699225944e-05 4
3.93749999999999988898e-01  5.00000000000000000000e-01  9.44755401255391258353e-01  5.06452114866773328572e-05 4
4.00000000000000022204e-01  5.00000000000000000000e-01  9.51005536034693732539e-01  5.09802604597986430690e-05 4
4.06250000000000000000e-01  5.00000000000000000000e-01  9.56889040076580377203e-01  5.12956556285582010446e-05 4
4.12499999999999977796e-01  5.00000000000000000000e-01  9.62403645178414812733e-01  5.15912752324654277913e-05 4
4.18750000000000011102e-01  5.00000000000000000000e-01  9.67547225354506545969e-01  5.18670057532144568313e-05 4
4.24999999999999988898e-01  5.00000000000000000000e-01  9.72317797657345161966e-01  5.21227403313950787833e-05 4
4.31250000000000022204e-01  5.00000000000000000000e-01  9.76713522940381939641e-01  5.23583804905580763034e-05 4
4.37500000000000000000e-01  5.00000000000000000000e-01  9.80732706567452927615e-01  5.25738357775029641061e-05 4
4.43749999999999977796e-01  5.00000000000000000000e-01  9.84373799067268406837e-01  5.27690226231891656994e-05 4
4.50000000000000011102e-01  5.00000000000000000000e-01  9.87635396729074299671e-01  5.29438660634706792507e-05 4
4.56249999999999988898e-01  5.00000000000000000000e-01  9.90516242145056069468e-01  5.30982985211814195736e-05 4
4.62500000000000022204e-01  5.00000000000000000000e-01  9.93015224694005493866e-01  5.32322609207991348512e-05 4
4.68750000000000000000e-01  5.00000000000000000000e-01  9.95131380971161161320e-01  5.33457010356563898767e-05 4
4.74999999999999977796e-01  5.00000000000000000000e-01  9.96863895157755641740e-01  5.34385753723221057498e-05 4
4.81250000000000011102e-01  5.00000000000000000000e-01  9.98212099336715397158e-01  5.35108480005375142241e-05 4
4.87499999999999988898e-01  5.00000000000000000000e-01  9.99175473749311371385e-01  5.35624914115295780448e-05 4
4.93750000000000022204e-01  5.00000000000000000000e-01  9.99753646996716871520e-01  5.35934853479469452964e-05 4
5.00000000000000000000e-01  5.00000000000000000000e-01  9.99946396181676910864e-01  5.36038183230891362996e-05 4
5.06249999999999977796e-01  5.00000000000000000000e-01  9.99753646997047495937e-01  5.35934850173225285630e-05 4
5.12499999999999955591e-01  5.00000000000000000000e-01  9.99175473749331910511e-01  5.35624913909904520892e-05 4
5.18750000000000044409e-01  5.00000000000000000000e-01  9.98212099336313052333e-01  5.35108484028823383483e-05 4
5.25000000000000022204e-01  5.00000000000000000000e-01  9.96863895157854673634e-01  5.34385752732902119533e-05 4
5.31250000000000000000e-01  5.00000000000000000000e-01  9.95131380971181367379e-01  5.33457010155613531310e-05 4
5.37499999999999977796e-01  5.00000000000000000000e-01  9.93015224694180798082e-01  5.32322607454949192629e-05 4
5.43749999999999955591e-01  5.00000000000000000000e-01  9.90516242144923952928e-01  5.30982986532979595040e-05 4
5.50000000000000044409e-01  5.00000000000000000000e-01  9.87635396728753334195e-01  5.29438663843251333674e-05 4
5.56250000000000022204e-01  5.00000000000000000000e-01  9.84373799067440269361e-01  5.27690224513266414874e-05 4
5.62500000000000000000e-01  5.00000000000000000000e-01  9.80732706567606915549e-01  5.25738356235150305906e-05 4
5.68749999999999977796e-01  5.00000000000000000000e-01  9.76713522940068967770e-01  5.23583808035299469452e-05 4
5.74999999999999955591e-01  5.00000000000000000000e-01  9.72317797657631821551e-01  5.21227400448465161276e-05 4
5.81250000000000044409e-01  5.00000000000000000000e-01  9.67547225354721152080e-01  5.18670055386083461713e-05 4
5.87500000000000022204e-01  5.00000000000000000000e-01  9.62403645177994149229e-01  5.15912756531289318218e-05 4
5.93750000000000000000e-01  5.00000000000000000000e-01  9.56889040076640995380e-01  5.12956555679400239001e-05 4
5.99999999999999977796e-01  5.00000000000000000000e-01  9.51005536034685627911e-01  5.09802604680142934512e-05 4
6.06249999999999955591e-01  5.00000000000000000000e-01  9.44755401255579885245e-01  5.06452112981614632758e-05 4
6.12500000000000044409e-01  5.00000000000000000000e-01  9.38141045284947905358e-01  5.02906375361433788385e-05 4
6.18750000000000022204e-01  5.00000000000000000000e-01  9.31165018082806494881e-01  4.99166759970748330488e-05 4
6.25000000000000000000e-01  5.00000000000000000000e-01  9.23830009041083921595e-01  4.95234702028168882748e-05 4
6.31249999999999977796e-01  5.00000000000000000000e-01  9.16138845944656776688e-01  4.91111724791881698593e-05 4
6.37499999999999955591e-01  5.00000000000000000000e-01  9.08094493883407349877e-01  4.86799416741234836081e-05 4
6.43750000000000044409e-01  5.00000000000000000000e-01  8.99700054109120461732e-01  4.82299431009414192317e-05 4
6.50000000000000022204e-01  5.00000000000000000000e-01  8.90958762836891904335e-01  4.77613514759944735033e-05 4
6.56250000000000000000e-01  5.00000000000000000000e-01  8.81873990001199814515e-01  4.72743471552350413845e-05 4
6.62499999999999977796e-01  5.00000000000000000000e-01  8.72449237955637890707e-01  4.67691171593953569641e-05 4
6.68749999999999955591e-01  5.00000000000000000000e-01  8.62688140120716817627e-01  4.62458570751334008264e-05 4
6.75000000000000044409e-01  5.00000000000000000000e-01  8.52594459585940489532e-01  4.57047681517996906564e-05 4
6.81250000000000022204e-01  5.00000000000000000000e-01  8.42172087657036549935e-01  4.51460592499897117591e-05 4
6.87500000000000000000e-01  5.00000000000000000000e-01  8.31425042356656041065e-01  4.45699458894166511413e-05 4
6.93749999999999977796e-01  5.00000000000000000000e-01  8.20357466875935470441e-01  4.39766495782256683356e-05 4
6.99999999999999955591e-01  5.00000000000000000000e-01  8.08973627975235420884e-01  4.33663997120303790211e-05 4
7.06250000000000044409e-01  5.00000000000000000000e-01  7.97277914341246285446e-01  4.27394314608253722554e-05 4
7.12500000000000022204e-01  5.00000000000000000000e-01  7.85274834895039797189e-01  4.20959857050373642551e-05 4
7.18750000000000000000e-01  5.00000000000000000000e-01  7.72969017051137297081e-01  4.14363115998073183732e-05 4
7.24999999999999977796e-01  5.00000000000000000000e-01  7.60365204936855443307e-01  4.07606631755985659993e-05 4
7.31249999999999955591e-01  5.00000000000000000000e-01  7.47468257562284854600e-01  4.00693003121954660628e-05 4
7.37500000000000044409e-01  5.00000000000000000000e-01  7.34283146945466258515e-01  3.93624902191858083711e-05 4
7.43750000000000022204e-01  5.00000000000000000000e-01  7.20814956197937561910e-01  3.86405049813687284654e-05 4
7.50000000000000000000e-01  5.00000000000000000000e-01  7.07068877563378883622e-01  3.79036231686891156301e-05 4
7.56249999999999977796e-01  5.00000000000000000000e-01  6.93050210416689682624e-01  3.71521289461718140501e-05 4
7.62499999999999955591e-01  5.00000000000000000000e-01  6.78764359221379565135e-01  3.63863115624418753669e-05 4
7.68750000000000044409e-01  5.00000000000000000000e-01  6.64216831444570221521e-01  3.56064667113020760780e-05 4
7.75000000000000022204e-01  5.00000000000000000000e-01  6.49413235434990632200e-01  3.48128951931370167472e-05 4
7.81250000000000000000e-01  5.00000000000000000000e-01  6.34359278261588555026e-01  3.40059020569327685735e-05 4
7.87499999999999977796e-01  5.00000000000000000000e-01  6.19060763510487666039e-01  3.31857993465245471043e-05 4
7.93749999999999955591e-01  5.00000000000000000000e-01  6.03523589050547593082e-01  3.23529030239466663943e-05 4
8.00000000000000044409e-01  5.00000000000000000000e-01  5.87753744758768181811e-01  3.15075337050663151217e-05 4
8.06250000000000022204e-01  5.00000000000000000000e-01  5.71757310209925928568e-01  3.06500176863178097619e-05 4
8.12500000000000000000e-01  5.00000000000000000000e-01  5.55540452333829648524e-01  2.97806857725291251882e-05 4
8.18749999999999977796e-01  5.00000000000000000000e-01  5.39109423038478974277e-01  2.88998725214151264140e-05 4
8.24999999999999955591e-01  5.00000000000000000000e-01  5.22470556797957952355e-01  2.80079179909575870511e-05 4
8.31250000000000044409e-01  5.00000000000000000000e-01  5.05630268212203359823e-01  2.71051657811938184750e-05 4
8.37500000000000022204e-01  5.00000000000000000000e-01  4.88595049532905723044e-01  2.61919640491270477867e-05 4
8.43750000000000000000e-01  5.00000000000000000000e-01  4.71371468160949325110e-01  2.52686650485389741050e-05 4
8.49999999999999977796e-01  5.00000000000000000000e-01  4.53966164115479853258e-01  2.43356240670067336396e-05 4
8.56249999999999955591e-01  5.00000000000000000000e-01  4.36385847471903121075e-01  2.33932014393478659997e-05 4
8.62500000000000044409e-01  5.00000000000000000000e-01  4.18637295776936368963e-01  2.24417604915982948910e-05 4
8.68750000000000022204e-01  5.00000000000000000000e-01  4.00727351435607892505e-01  2.14816675332962780942e-05 4
8.75000000000000000000e-01  5.00000000000000000000e-01  3.82662919072066509685e-01  2.05132930233831167754e-05 4
8.81249999999999977796e-01  5.00000000000000000000e-01  3.64450962868729855249e-01  1.95370104197900573695e-05 4
8.87499999999999955591e-01  5.00000000000000000000e-01  3.46098503881761443424e-01  1.85531957318518792022e-05 4
8.93750000000000044409e-01  5.00000000000000000000e-01  3.27612617333158995248e-01  1.75622285343290940318e-05 4
9.00000000000000022204e-01  5.00000000000000000000e-01  3.09000429884271510250e-01  1.65644906759965238052e-05 4
9.06250000000000000000e-01  5.00000000000000000000e-01  2.90269116887479194933e-01  1.55603669831916313626e-05 4
9.12499999999999977796e-01  5.00000000000000000000e-01  2.71425899620507893317e-01  1.45502445667022861642e-05 4
9.18749999999999955591e-01  5.00000000000000000000e-01  2.52478042502639665745e-01  1.35345125185093451137e-05 4
9.25000000000000044409e-01  5.00000000000000000000e-01  2.33432850293143090425e-01  1.25135627624395340263e-05 4
9.31250000000000022204e-01  5.00000000000000000000e-01  2.14297665276154375436e-01  1.14877888963693663982e-05 4
9.37500000000000000000e-01  5.00000000000000000000e-01  1.95079864430039051637e-01  1.04575860895572692044e-05 4
9.43749999999999977796e-01  5.00000000000000000000e-01  1.75786856582576589414e-01  9.42335177814279667530e-06 4
9.49999999999999955591e-01  5.00000000000000000000e-01  1.56426079555605085369e-01  8.38548462589461252037e-06 4
9.56250000000000044409e-01  5.00000000000000000000e-01  1.37004997297334979445e-01  7.34438463306785749296e-06 4
9.62500000000000022204e-01  5.00000000000000000000e-01  1.17531097004573245601e-01  6.30045326430184182698e-06 4
9.68750000000000000000e-01  5.00000000000000000000e-01  9.80118862366183146717e-02  5.25409294251100167372e-06 4
9.74999999999999977796e-01  5.00000000000000000000e-01  7.84548900207648752803e-02  4.20570708019318839632e-06 4
9.81249999999999955591e-01  5.00000000000000000000e-01  5.88676479513388917209e-02  3.15569985059882540668e-06 4
9.87500000000000044409e-01  5.00000000000000000000e-01  3.92577112830466562476e-02  2.10447602184971049866e-06 4
9.93750000000000022204e-01  5.00000000000000000000e-01  1.96326400197571748762e-02  1.05244087135816788425e-06 4
1.00000000000000000000e+00  5.00000000000000000000e-01  0.00000000000000000000e+00  1.22464679914735320717e-16 4
0.00000000000000000000e+00  5.06249999999999977796e-01  0.00000000000000000000e+00  0.00000000000000000000e+00 4
6.25000000000000034694e-03  5.06249999999999977796e-01  1.96284300753270246620e-02  1.47780420727688932558e-06 4
1.25000000000000006939e-02  5.06249999999999977796e-01  3.92493035979698881577e-02  2.94445793878189698844e-06 4
1.87499999999999993061e-02  5.06249999999999977796e-01  5.88554610746008857736e-02  3.99466885588756204228e-06 4
2.50000000000000013878e-02  5.06249999999999977796e-01  7.84389286506222693784e-02  5.04333975254178668024e-06 4
3.12500000000000000000e-02  5.06249999999999977796e-01  9.79921565264990773736e-02  6.09006634220976561522e-06 4
3.74999999999999986122e-02  5.06249999999999977796e-01  1.17507606560661781447e-01  7.13444510253014030354e-06 4
4.37499999999999972244e-02  5.06249999999999977796e-01  1.36977755175645005137e-01  8.17607338923775905926e-06 4
5.00000000000000027756e-02  5.06249999999999977796e-01  1.56395096258506172138e-01  9.21454965510659640415e-06 4
5.62500000000000013878e-02  5.06249999999999977796e-01  1.75752144054653808292e-01  1.02494735257641078618e-05 4
6.25000000000000000000e-02  5.06249999999999977796e-01  1.95041436053663946870e-01  1.12804460386528582205e-05 4
6.87500000000000055511e-02  5.06249999999999977796e-01  2.14255535866306856541e-01  1.23070697100047254935e-05 4
7.49999999999999972244e-02  5.06249999999999977796e-01  2.33387036091305871688e-01  1.33289487984633581164e-05 4
8.12500000000000027756e-02  5.06249999999999977796e-01  2.52428561171193943657e-01  1.43456892958693238427e-05 4
8.74999999999999944489e-02  5.06249999999999977796e-01  2.71372770235535631933e-01  1.53568992745101162711e-05 4
9.37500000000000000000e-02  5.06249999999999977796e-01  2.90212359931145968961e-01  1.63621888648046720505e-05 4
1.00000000000000005551e-01  5.06249999999999977796e-01  3.08940067237564508495e-01  1.73611705133747129537e-05 4
1.06249999999999997224e-01  5.06249999999999977796e-01  3.27548672267093610166e-01  1.83534591265410718108e-05 4
1.12500000000000002776e-01  5.06249999999999977796e-01  3.46031001048315745017e-01  1.93386721057953181457e-05 4
1.18749999999999994449e-01  5.06249999999999977796e-01  3.64379928291612975588e-01  2.03164296783686637582e-05 4
1.25000000000000000000e-01  5.06249999999999977796e-01  3.82588380136291206224e-01  2.12863548540997982172e-05 4
1.31250000000000005551e-01  5.06249999999999977796e-01  4.00649336877473671858e-01  2.22480737852581711422e-05 4
1.37500000000000011102e-01  5.06249999999999977796e-01  4.18555835672647646994e-01  2.32012155939043118735e-05 4
1.43749999999999988898e-01  5.06249999999999977796e-01  4.36300973225562271907e-01  2.41454129251139626433e-05 4
1.49999999999999994449e-01  5.06249999999999977796e-01  4.53877908447891720289e-01  2.50803017780576453788e-05 4
1.56250000000000000000e-01  5.06249999999999977796e-01  4.71279865096588423956e-01  2.60055216624310858720e-05 4
1.62500000000000005551e-01  5.06249999999999977796e-01  4.88500134386104123418e-01  2.69207158869466667284e-05 4
1.68750000000000011102e-01  5.06249999999999977796e-01  5.05532077574720850599e-01  2.78255317309739069742e-05 4
1.74999999999999988898e-01  5.06249999999999977796e-01  5.22369128524245662781e-01  2.87196202466422079169e-05 4
1.81249999999999994449e-01  5.06249999999999977796e-01  5.39004796230915461663e-01  2.96026368600266209796e-05 4
1.87500000000000000000e-01  5.06249999999999977796e-01  5.55432667328303764087e-01  3.04742410024427812232e-05 4
1.93750000000000005551e-01  5.06249999999999977796e-01  5.71646408559200236432e-01  3.13340968374209438707e-05 4
2.00000000000000011102e-01  5.06249999999999977796e-01  5.87639769217854990302e-01  3.21818727367917389870e-05 4
2.06249999999999988898e-01  5.06249999999999977796e-01  6.03406583559280229601e-01  3.30172418733232220234e-05 4
2.12499999999999994449e-01  5.06249999999999977796e-01  6.18940773176324454674e-01  3.38398822840035862214e-05 4
2.18750000000000000000e-01  5.06249999999999977796e-01  6.34236349343189065308e-01  3.46494768197480595973e-05 4
2.25000000000000005551e-01  5.06249999999999977796e-01  6.49287415324183658782e-01  3.54457132799579355265e-05 4
2.31250000000000011102e-01  5.06249999999999977796e-01  6.64088168646871035428e-01  3.62282846916306411345e-05 4
2.37499999999999988898e-01  5.06249999999999977796e-01  6.78632903338959758699e-01  3.69968894989858299027e-05 4
2.43749999999999994449e-01  5.06249999999999977796e-01  6.92916012128556912941e-01  3.77512311876548878331e-05 4
2.50000000000000000000e-01  5.06249999999999977796e-01  7.06931988604973859935e-01  3.84910193034215808439e-05 4
2.56249999999999977796e-01  5.06249999999999977796e-01  7.20675429343179296815e-01  3.92159679371006930637e-05 4
2.62500000000000011102e-01  5.06249999999999977796e-01  7.34141035984137491077e-01  3.99257986203327419616e-05 4
2.68749999999999988898e-01  5.06249999999999977796e-01  7.47323617281160923476e-01  4.06202366972641115694e-05 4
2.75000000000000022204e-01  5.06249999999999977796e-01  7.60218091097325410210e-01  4.12990153415560001804e-05 4
2.81250000000000000000e-01  5.06249999999999977796e-01  7.72819486368500840889e-01  4.19618718870973239632e-05 4
2.87499999999999977796e-01  5.06249999999999977796e-01  7.85122945015844453387e-01  4.26085518774321769797e-05 4
2.93750000000000011102e-01  5.06249999999999977796e-01  7.97123723822931951055e-01  4.32388049141918529017e-05 4
2.99999999999999988898e-01  5.06249999999999977796e-01  8.08817196260084636528e-01  4.38523890257114246083e-05 4
3.06250000000000022204e-01  5.06249999999999977796e-01  8.20198854271625421575e-01  4.44490671209774035333e-05 4
3.12500000000000000000e-01  5.06249999999999977796e-01  8.31264310011846530024e-01  4.50286090535323424433e-05 4
3.18749999999999977796e-01  5.06249999999999977796e-01  8.42009297536463696687e-01  4.55907918548437152140e-05 4
3.25000000000000011102e-01  5.06249999999999977796e-01  8.52429674448902052752e-01  4.61353981370260513017e-05 4
3.31249999999999988898e-01  5.06249999999999977796e-01  8.62521423494553629574e-01  4.66622188909360247067e-05 4
3.37500000000000022204e-01  5.06249999999999977796e-01  8.72280654113200881739e-01  4.71710498725075311199e-05 4
3.43750000000000000000e-01  5.06249999999999977796e-01  8.81703603934457791347e-01  4.76616961245790449198e-05 4
3.49999999999999977796e-01  5.06249999999999977796e-01  8.90786640232920201576e-01  4.81339673679137547424e-05 4
3.56250000000000011102e-01  5.06249999999999977796e-01  8.99526261324148701526e-01  4.85876825758735364502e-05 4
3.62499999999999988898e-01  5.06249999999999977796e-01  9.07919097919004380870e-01  4.90226656741921118510e-05 4
3.68750000000000022204e-01  5.06249999999999977796e-01  9.15961914418051414977e-01  4.94387501326354339426e-05 4
3.75000000000000000000e-01  5.06249999999999977796e-01  9.23651610163171765677e-01  4.98357747978905862851e-05 4
3.81249999999999977796e-01  5.06249999999999977796e-01  9.30985220630175414058e-01  5.02135867098685295673e-05 4
3.87500000000000011102e-01  5.06249999999999977796e-01  9.37959918572228046330e-01  5.05720406127618815617e-05 4
3.93749999999999988898e-01  5.06249999999999977796e-01  9.44573015111128899690e-01  5.09109976898347582619e-05 4
4.00000000000000022204e-01  5.06249999999999977796e-01  9.50821960771432328485e-01  5.12303281110515484897e-05 4
4.06250000000000000000e-01  5.06249999999999977796e-01  9.56704346466799360194e-01  5.15299076011555001742e-05 4
4.12499999999999977796e-01  5.06249999999999977796e-01  9.62217904424237380212e-01  5.18096219969121918325e-05 4
4.18750000000000011102e-01  5.06249999999999977796e-01  9.67360509063536322394e-01  5.20693621255396976721e-05 4
4.24999999999999988898e-01  5.06249999999999977796e-01  9.72130177811369455831e-01  5.23090291966177289851e-05 4
4.31250000000000022204e-01  5.06249999999999977796e-01  9.76525071870985694744e-01  5.25285294679100900339e-05 4
4.37500000000000000000e-01  5.06249999999999977796e-01  9.80543496925826985056e-01  5.27277795550062933216e-05 4
4.43749999999999977796e-01  5.06249999999999977796e-01  9.84183903797162917826e-01  5.29067020210716165707e-05 4
4.50000000000000011102e-01  5.06249999999999977796e-01  9.87444889039239326323e-01  5.30652274951526337077e-05 4
4.56249999999999988898e-01  5.06249999999999977796e-01  9.90325195479092590389e-01  5.32032959393857751706e-05 4
4.62500000000000022204e-01  5.06249999999999977796e-01  9.92823712705075744900e-01  5.33208528112893986872e-05 4
4.68750000000000000000e-01  5.06249999999999977796e-01  9.94939477489854007253e-01  5.34178541730101485996e-05 4
4.74999999999999977796e-01  5.06249999999999977796e-01  9.96671674167101007136e-01  5.34942613553690549111e-05 4
4.81250000000000011102e-01  5.06249999999999977796e-01  9.98019634941094246905e-01  5.35500458311854998783e-05 4
4.87499999999999988898e-01  5.06249999999999977796e-01  9.98982840147651152130e-01  5.35851857391689279098e-05 4
4.93750000000000022204e-01  5.06249999999999977796e-01  9.99560918452931712608e-01  5.35996674296823627515e-05 4
5.00000000000000000000e-01  5.06249999999999977796e-01  9.99753646997047717981e-01  5.35934850171004839581e-05 4
5.06249999999999977796e-01  5.06249999999999977796e-01  9.99560951477900805351e-01  5.35666424605896196454e-05 4
5.12499999999999955591e-01  5.06249999999999977796e-01  9.98982906185789332199e-01  5.35191476009888589260e-05 4
5.18750000000000044409e-01  5.06249999999999977796e-01  9.98019733966011401982e-01  5.34510209140304226594e-05 4
5.25000000000000022204e-01  5.06249999999999977796e-01  9.96671806141083527208e-01  5.33622873728489821588e-05 4
5.31250000000000000000e-01  5.06249999999999977796e-01  9.94939642361914677871e-01  5.32529821124505531316e-05 4
5.37499999999999977796e-01  5.06249999999999977796e-01  9.92823910410949972416e-01  5.31231469370618825110e-05 4
5.43749999999999955591e-01  5.06249999999999977796e-01  9.90325425943839765530e-01  5.29728311922106342990e-05 4
5.50000000000000044409e-01  5.06249999999999977796e-01  9.87445152173196505352e-01  5.28020935378625821954e-05 4
5.56250000000000022204e-01  5.06249999999999977796e-01  9.84184199498950529339e-01  5.26110002334601034590e-05 4
5.62500000000000000000e-01  5.06249999999999977796e-01  9.80543825081906406105e-01  5.23996234755852441367e-05 4
5.68749999999999977796e-01  5.06249999999999977796e-01  9.76525432354322431294e-01  5.21680461311735399477e-05 4
5.74999999999999955591e-01  5.06249999999999977796e-01  9.72130570483116906999e-01  5.19163574492775836688e-05 4
5.81250000000000044409e-01  5.06249999999999977796e-01  9.67360933772532294306e-01  5.16446531295677857543e-05 4
5.87500000000000022204e-01  5.06249999999999977796e-01  9.62218361006743072572e-01  5.13530394912198318025e-05 4
5.93750000000000000000e-01  5.06249999999999977796e-01  9.56704834746571419757e-01  5.10416278290959368746e-05 4
5.99999999999999977796e-01  5.06249999999999977796e-01  9.50822480560458926924e-01  5.07105390845641323949e-05 4
6.06249999999999955591e-01  5.06249999999999977796e-01  9.44573566208460668747e-01  5.03599003581767235005e-05 4
6.12500000000000044409e-01  5.06249999999999977796e-01  9.37960500766456317656e-01  4.99898463843795326511e-05 4
6.18750000000000022204e-01  5.06249999999999977796e-01  9.30985833695320175174e-01  4.96005215652184361375e-05 4
6.25000000000000000000e-01  5.06249999999999977796e-01  9.23652253864140515560e-01  4.91920738291407033671e-05 4
6.31249999999999977796e-01  5.06249999999999977796e-01  9.15962588506465280602e-01  4.87646617187698083740e-05 4
6.37499999999999955591e-01  5.06249999999999977796e-01  9.07919802134767750523e-01  4.83184499110445031533e-05 4