Titile = 'Poisson'  
VARIABLES = X, Y, U, Error, Rank 
zone N= 3751, E = 7200
DATAPACKING=POINT, ZONETYPE=FETRIANGLE
0.00000000000000000000e+00  7.50000000000000000000e-01  0.00000000000000000000e+00  0.00000000000000000000e+00 3
8.33333333333333321769e-03  7.50000000000000000000e-01  1.84807838404888319372e-02  2.91138187779940715849e-05 3
1.66666666666666664354e-02  7.50000000000000000000e-01  3.69498072955244394322e-02  5.73022637435707804521e-05 3
2.50000000000000013878e-02  7.50000000000000000000e-01  5.54199876763091375809e-02  5.89709586145056863238e-05 3
3.33333333333333328707e-02  7.50000000000000000000e-01  7.38521859658293894357e-02  6.05992377373243407135e-05 3
4.16666666666666643537e-02  7.50000000000000000000e-01  9.22337696560906472598e-02  6.21859851666073382148e-05 3
5.00000000000000027756e-02  7.50000000000000000000e-01  1.10552140927806435977e-01  6.37301134307211025742e-05 3
5.83333333333333342585e-02  7.50000000000000000000e-01  1.28794745284335460100e-01  6.52305642559747322906e-05 3
6.66666666666666657415e-02  7.50000000000000000000e-01  1.46949080155883676779e-01  6.66863093147784802284e-05 3
7.49999999999999972244e-02  7.50000000000000000000e-01  1.65002703468163230971e-01  6.80963509084309137620e-05 3
8.33333333333333287074e-02  7.50000000000000000000e-01  1.82943242169564895816e-01  6.94597226544302337459e-05 3
9.16666666666666601904e-02  7.50000000000000000000e-01  2.00758400710994489025e-01  7.07754901839718897349e-05 3
1.00000000000000005551e-01  7.50000000000000000000e-01  2.18435969472669327951e-01  7.20427517411914575263e-05 3
1.08333333333333337034e-01  7.50000000000000000000e-01  2.35963833132016187477e-01  7.32606387665868385994e-05 3
1.16666666666666668517e-01  7.50000000000000000000e-01  2.53329978966778057714e-01  7.44283166222992065286e-05 3
1.25000000000000000000e-01  7.50000000000000000000e-01  2.70522505088054865396e-01  7.55449850436407110976e-05 3
1.33333333333333331483e-01  7.50000000000000000000e-01  2.87529628597270658918e-01  7.66098786800784026241e-05 3
1.41666666666666662966e-01  7.50000000000000000000e-01  3.04339693661461851981e-01  7.76222677418836326524e-05 3
1.49999999999999994449e-01  7.50000000000000000000e-01  3.20941179501721407519e-01  7.85814583816324407906e-05 3
1.58333333333333325932e-01  7.50000000000000000000e-01  3.37322708288891548456e-01  7.94867932437104407484e-05 3
1.66666666666666657415e-01  7.50000000000000000000e-01  3.53473052941482901446e-01  8.03376517908294118797e-05 3
1.74999999999999988898e-01  7.50000000000000000000e-01  3.69381144819992290884e-01  8.11334508932781695023e-05 3
1.83333333333333320381e-01  7.50000000000000000000e-01  3.85036081312742750615e-01  8.18736452803392467104e-05 3
1.91666666666666679619e-01  7.50000000000000000000e-01  4.00427133308460636574e-01  8.25577274429778462661e-05 3
2.00000000000000011102e-01  7.50000000000000000000e-01  4.15543752548719724782e-01  8.31852287337397910960e-05 3
2.08333333333333342585e-01  7.50000000000000000000e-01  4.30375578857854435011e-01  8.37557190250248773111e-05 3
2.16666666666666674068e-01  7.50000000000000000000e-01  4.44912447242984621099e-01  8.42688073253716751765e-05 3
2.25000000000000005551e-01  7.50000000000000000000e-01  4.59144394860706350769e-01  8.47241419352218194661e-05 3
2.33333333333333337034e-01  7.50000000000000000000e-01  4.73061667844857536291e-01  8.51214109575115784878e-05 3
2.41666666666666668517e-01  7.50000000000000000000e-01  4.86654727991912783303e-01  8.54603419292443433619e-05 3
2.50000000000000000000e-01  7.50000000000000000000e-01  4.99914259297342455923e-01  8.57407026575440767147e-05 3
2.58333333333333359239e-01  7.50000000000000000000e-01  5.12831174340672935053e-01  8.59623010422971844946e-05 3
2.66666666666666662966e-01  7.50000000000000000000e-01  5.25396620513608358927e-01  8.61249851504819474712e-05 3
2.75000000000000022204e-01  7.50000000000000000000e-01  5.37601986087084093846e-01  8.62286434024639447671e-05 3
2.83333333333333325932e-01  7.50000000000000000000e-01  5.49438906112940772530e-01  8.62732050226355795530e-05 3
2.91666666666666685170e-01  7.50000000000000000000e-01  5.60899268157770136689e-01  8.62586391608965996625e-05 3
2.99999999999999988898e-01  7.50000000000000000000e-01  5.71975217861754314796e-01  8.61849559300464918010e-05 3
3.08333333333333348136e-01  7.50000000000000000000e-01  5.82659164322119726975e-01  8.60522059313861831242e-05 3
3.16666666666666651864e-01  7.50000000000000000000e-01  5.92943785295845571248e-01  8.58604799368611892874e-05 3
3.25000000000000011102e-01  7.50000000000000000000e-01  6.02822032217121495101e-01  8.56099096695484007569e-05 3
3.33333333333333314830e-01  7.50000000000000000000e-01  6.12287135029439877343e-01  8.53006663547040133722e-05 3
3.41666666666666674068e-01  7.50000000000000000000e-01  6.21332606823642552563e-01  8.49329624152961315531e-05 3
3.49999999999999977796e-01  7.50000000000000000000e-01  6.29952248285296168007e-01  8.45070497542677045999e-05 3
3.58333333333333337034e-01  7.50000000000000000000e-01  6.38140151943118016931e-01  8.40232198566770449588e-05 3
3.66666666666666640761e-01  7.50000000000000000000e-01  6.45890706216387222582e-01  8.34818048638386045468e-05 3
3.75000000000000000000e-01  7.50000000000000000000e-01  6.53198599262523660336e-01  8.28831756646275508160e-05 3
3.83333333333333359239e-01  7.50000000000000000000e-01  6.60058822617046292436e-01  8.22277421542727537940e-05 3
3.91666666666666662966e-01  7.50000000000000000000e-01  6.66466674624787591696e-01  8.15159542904009271069e-05 3
4.00000000000000022204e-01  7.50000000000000000000e-01  6.72417763664719059236e-01  8.07482992383201647613e-05 3
4.08333333333333325932e-01  7.50000000000000000000e-01  6.77908011157452583539e-01  7.99253033343383378906e-05 3
4.16666666666666685170e-01  7.50000000000000000000e-01  6.82933654361648545539e-01  7.90475305708637776547e-05 3
4.24999999999999988898e-01  7.50000000000000000000e-01  6.87491248952129097027e-01  7.81155828915025551851e-05 3
4.33333333333333348136e-01  7.50000000000000000000e-01  6.91577671382013758894e-01  7.71300982118638955853e-05 3
4.41666666666666651864e-01  7.50000000000000000000e-01  6.95190121020710871669e-01  7.60917527133919691096e-05 3
4.50000000000000011102e-01  7.50000000000000000000e-01  6.98326122075969668579e-01  7.50012577407366265447e-05 3
4.58333333333333314830e-01  7.50000000000000000000e-01  7.00983525289369913125e-01  7.38593606079973596934e-05 3
4.66666666666666674068e-01  7.50000000000000000000e-01  7.03160509409545886328e-01  7.26668438583155662513e-05 3
4.74999999999999977796e-01  7.50000000000000000000e-01  7.04855582439947836448e-01  7.14245251595135854927e-05 3
4.83333333333333337034e-01  7.50000000000000000000e-01  7.06067582662958215245e-01  7.01332551680255988913e-05 3
4.91666666666666640761e-01  7.50000000000000000000e-01  7.06795679433182777451e-01  6.87939198380504990382e-05 3
5.00000000000000000000e-01  7.50000000000000000000e-01  7.07039373750205535352e-01  6.74074363420373856570e-05 3
5.08333333333333303727e-01  7.50000000000000000000e-01  7.06798498597915769714e-01  6.59747551050582359267e-05 3
5.16666666666666718477e-01  7.50000000000000000000e-01  7.06073219059837442479e-01  6.44968582887983643559e-05 3
5.25000000000000022204e-01  7.50000000000000000000e-01  7.04864032206613422282e-01  6.29747584939277516014e-05 3
5.33333333333333325932e-01  7.50000000000000000000e-01  7.03171766754724592019e-01  6.14094986797208974849e-05 3
5.41666666666666629659e-01  7.50000000000000000000e-01  7.00997582497821625225e-01  5.98021521563962821233e-05 3
5.50000000000000044409e-01  7.50000000000000000000e-01  6.98342969513424227657e-01  5.81538202860665265348e-05 3
5.58333333333333348136e-01  7.50000000000000000000e-01  6.95209747140995260040e-01  5.64656324290035982472e-05 3
5.66666666666666651864e-01  7.50000000000000000000e-01  6.91600062734393672415e-01  5.47387458319503750204e-05 3
5.74999999999999955591e-01  7.50000000000000000000e-01  6.87516390190627935119e-01  5.29743443926644630437e-05 3
5.83333333333333370341e-01  7.50000000000000000000e-01  6.82961528255580763158e-01  5.11736366386461583033e-05 3
5.91666666666666674068e-01  7.50000000000000000000e-01  6.77938598603635256268e-01  4.93378571516656094786e-05 3
5.99999999999999977796e-01  7.50000000000000000000e-01  6.72451043699988426638e-01  4.74682639689527618998e-05 3
6.08333333333333281523e-01  7.50000000000000000000e-01  6.66502624440797108996e-01  4.55661382808836279423e-05 3
6.16666666666666696273e-01  7.50000000000000000000e-01  6.60097417575151945712e-01  4.36327840486194773462e-05 3
6.25000000000000000000e-01  7.50000000000000000000e-01  6.53239812912187467475e-01  4.16695260008204115820e-05 3
6.33333333333333303727e-01  7.50000000000000000000e-01  6.45934510311608311994e-01  3.96777096427491926534e-05 3
6.41666666666666718477e-01  7.50000000000000000000e-01  6.38186516462710295983e-01  3.76587002643979928962e-05 3
6.50000000000000022204e-01  7.50000000000000000000e-01  6.30001141453640722823e-01  3.56138814098239109285e-05 3
6.58333333333333325932e-01  7.50000000000000000000e-01  6.21383995131078781249e-01  3.35446549790674453106e-05 3
6.66666666666666629659e-01  7.50000000000000000000e-01  6.12340983257819493346e-01  3.14524379750880100914e-05 3
6.75000000000000044409e-01  7.50000000000000000000e-01  6.02878303461012121645e-01  2.93386657789218574521e-05 3
6.83333333333333348136e-01  7.50000000000000000000e-01  5.93002440990204604532e-01  2.72047855778279057404e-05 3
6.91666666666666651864e-01  7.50000000000000000000e-01  5.82720164266491091887e-01  2.50522615600212716913e-05 3
6.99999999999999955591e-01  7.50000000000000000000e-01  5.72038520250624848984e-01  2.28825670595123042972e-05 3
7.08333333333333370341e-01  7.50000000000000000000e-01  5.60964829606415027463e-01  2.06971905160058256001e-05 3
7.16666666666666674068e-01  7.50000000000000000000e-01  5.49506681688949449871e-01  1.84976290140692611885e-05 3
7.24999999999999977796e-01  7.50000000000000000000e-01  5.37671929340542975595e-01  1.62853899435821958264e-05 3
7.33333333333333281523e-01  7.50000000000000000000e-01  5.25468683508787393066e-01  1.40619899716698526504e-05 3
7.41666666666666696273e-01  7.50000000000000000000e-01  5.12905307689330181020e-01  1.18289523849401945199e-05 3
7.50000000000000000000e-01  7.50000000000000000000e-01  4.99990412192108379941e-01  9.58780789173108161094e-06 3
7.58333333333333303727e-01  7.50000000000000000000e-01  4.86732848241157034508e-01  7.34009268527069380639e-06 3
7.66666666666666718477e-01  7.50000000000000000000e-01  4.73141701909380985036e-01  5.08734643395181151959e-06 3
7.75000000000000022204e-01  7.50000000000000000000e-01  4.59226287888636286461e-01  2.83111400534163948350e-06 3
7.83333333333333325932e-01  7.50000000000000000000e-01  4.44996143109302022545e-01  5.72941007914717914673e-07 3
7.91666666666666629659e-01  7.50000000000000000000e-01  4.30461020201342969838e-01  1.68562446334341586862e-06 3
8.00000000000000044409e-01  7.50000000000000000000e-01  4.15630880812171366046e-01  3.94303471784596126781e-06 3
8.08333333333333348136e-01  7.50000000000000000000e-01  4.00515888778818440752e-01  6.19774291482633188366e-06 3
8.16666666666666651864e-01  7.50000000000000000000e-01  3.85126403160888752808e-01  8.44820286544090137681e-06 3
8.24999999999999955591e-01  7.50000000000000000000e-01  3.69472971144487349893e-01  1.06928736017253278590e-05 3
8.33333333333333370341e-01  7.50000000000000000000e-01  3.53566320808657963415e-01  1.29302153842325573407e-05 3
8.41666666666666674068e-01  7.50000000000000000000e-01  3.37417353777854867047e-01  1.51586957194971283513e-05 3
8.49999999999999977796e-01  7.50000000000000000000e-01  3.21037137747074097227e-01  1.73767869709462452477e-05 3
8.58333333333333281523e-01  7.50000000000000000000e-01  3.04436898898320373874e-01  1.95829691163607044757e-05 3
8.66666666666666696273e-01  7.50000000000000000000e-01  2.87628014205746740384e-01  2.17757297961140849907e-05 3
8.75000000000000000000e-01  7.50000000000000000000e-01  2.70622003639988728541e-01  2.39535668901114107143e-05 3
8.83333333333333303727e-01  7.50000000000000000000e-01  2.53430522270586433553e-01  2.61149871857990767410e-05 3
8.91666666666666718477e-01  7.50000000000000000000e-01  2.36065352280257018114e-01  2.82585094744103315634e-05 3
9.00000000000000022204e-01  7.50000000000000000000e-01  2.18538394889463138959e-01  3.03826650525362840227e-05 3
9.08333333333333325932e-01  7.50000000000000000000e-01  2.00861662198786289357e-01  3.24859976078284429235e-05 3
9.16666666666666629659e-01  7.50000000000000000000e-01  1.83047268958268671835e-01  3.45670660491514958323e-05 3
9.25000000000000044409e-01  7.50000000000000000000e-01  1.65107424262909779911e-01  3.66244438380070036487e-05 3
9.33333333333333348136e-01  7.50000000000000000000e-01  1.47054423186443877780e-01  3.86567212454225206386e-05 3
9.41666666666666651864e-01  7.50000000000000000000e-01  1.28900638353621921350e-01  4.06625050303199842006e-05 3
9.49999999999999955591e-01  7.50000000000000000000e-01  1.10658511462210826237e-01  4.26404209735858907848e-05 3
9.58333333333333370341e-01  7.50000000000000000000e-01  9.23405447544190516318e-02  4.45891131617970337686e-05 3
9.66666666666666674068e-01  7.50000000000000000000e-01  7.39592924498264359112e-02  4.65072462595278457442e-05 3
9.74999999999999977796e-01  7.50000000000000000000e-01  5.55273521405404632545e-02  4.83935056167297816820e-05 3
9.83333333333333281523e-01  7.50000000000000000000e-01  3.70573561577274002143e-02  5.02465984590916292518e-05 3
9.91666666666666696273e-01  7.50000000000000000000e-01  1.85354824360895557855e-02  2.55847768228512073563e-05 3
1.00000000000000000000e+00  7.50000000000000000000e-01  0.00000000000000000000e+00  8.65956056235493409077e-17 3
0.00000000000000000000e+00  7.58333333333333303727e-01  0.00000000000000000000e+00  0.00000000000000000000e+00 3
8.33333333333333321769e-03  7.58333333333333303727e-01  1.79892485718434157194e-02  2.97735735799442569061e-05 3
1.66666666666666664354e-02  7.58333333333333303727e-01  3.59670970228387898437e-02  5.85979302996988971053e-05 3
2.50000000000000013878e-02  7.58333333333333303727e-01  5.39474600040206961338e-02  6.02175450356567942833e-05 3
3.33333333333333328707e-02  7.58333333333333303727e-01  7.18908500908539832563e-02  6.17958896717840655555e-05 3
4.16666666666666643537e-02  7.58333333333333303727e-01  8.97849697800604668041e-02  6.33318824945355851597e-05 3
5.00000000000000027756e-02  7.58333333333333303727e-01  1.07617555335841649788e-01  6.48244708058992591404e-05 3
5.83333333333333342585e-02  7.58333333333333303727e-01  1.25376385194807926649e-01  6.62726316675854576488e-05 3
6.66666666666666657415e-02  7.58333333333333303727e-01  1.43049288342054825574e-01  6.76753725749046353144e-05 3
7.49999999999999972244e-02  7.58333333333333303727e-01  1.60624152652545315600e-01  6.90317321605238287674e-05 3
8.33333333333333287074e-02  7.58333333333333303727e-01  1.78088933192163956232e-01  7.03407808443634596784e-05 3
9.16666666666666601904e-02  7.58333333333333303727e-01  1.95431660472711099530e-01  7.16016214728776301257e-05 3
1.00000000000000005551e-01  7.58333333333333303727e-01  2.12640448655204677975e-01  7.28133899214888913320e-05 3
1.08333333333333337034e-01  7.58333333333333303727e-01  2.29703503695802779827e-01  7.39752557243900099593e-05 3
1.16666666666666668517e-01  7.58333333333333303727e-01  2.46609131428923850082e-01  7.50864225720349054427e-05 3
1.25000000000000000000e-01  7.58333333333333303727e-01  2.63345745581763712728e-01  7.61461289371379024260e-05 3
1.33333333333333331483e-01  7.58333333333333303727e-01  2.79901875714994030631e-01  7.71536485503765412375e-05 3
1.41666666666666662966e-01  7.58333333333333303727e-01  2.96266175084019478536e-01  7.81082909072638997827e-05 3
1.49999999999999994449e-01  7.58333333333333303727e-01  3.12427428415458174893e-01  7.90094017529829883983e-05 3
1.58333333333333325932e-01  7.58333333333333303727e-01  3.28374559593595183316e-01  7.98563634653581821965e-05 3
1.66666666666666657415e-01  7.58333333333333303727e-01  3.44096639251230740353e-01  8.06485956463265374339e-05 3
1.74999999999999988898e-01  7.58333333333333303727e-01  3.59582892260338959911e-01  8.13855553035702783404e-05 3
1.83333333333333320381e-01  7.58333333333333303727e-01  3.74822705116679644188e-01  8.20667373450101322874e-05 3
1.91666666666666679619e-01  7.58333333333333303727e-01  3.89805633213710700513e-01  8.26916749786521521060e-05 3
2.00000000000000011102e-01  7.58333333333333303727e-01  4.04521408000991566922e-01  8.32599398400413193144e-05 3
2.08333333333333342585e-01  7.58333333333333303727e-01  4.18959944021499219868e-01  8.37711425221709937716e-05 3
2.16666666666666674068e-01  7.58333333333333303727e-01  4.33111345823879945183e-01  8.42249326584720847677e-05 3
2.25000000000000005551e-01  7.58333333333333303727e-01  4.46965914744281711535e-01  8.46209991786639470490e-05 3
2.33333333333333337034e-01  7.58333333333333303727e-01  4.60514155553092163764e-01  8.49590707641678655193e-05 3
2.41666666666666668517e-01  7.58333333333333303727e-01  4.73746782962934154249e-01  8.52389155940325160543e-05 3
2.50000000000000000000e-01  7.58333333333333303727e-01  4.86654727991892133154e-01  8.54603419500610250736e-05 3
2.58333333333333359239e-01  7.58333333333333303727e-01  4.99229144179277939397e-01  8.56231980091992639359e-05 3
2.66666666666666662966e-01  7.58333333333333303727e-01  5.11461413648223728323e-01  8.57273722769669177524e-05 3
2.75000000000000022204e-01  7.58333333333333303727e-01  5.23343153012343464958e-01  8.57727932653817859432e-05 3
2.83333333333333325932e-01  7.58333333333333303727e-01  5.34866219121014174753e-01  8.57594298135921917492e-05 3
2.91666666666666685170e-01  7.58333333333333303727e-01  5.46022714640159945176e-01  8.56872912358142002631e-05 3
2.99999999999999988898e-01  7.58333333333333303727e-01  5.56804993465237041406e-01  8.55564267663311284196e-05 3
3.08333333333333348136e-01  7.58333333333333303727e-01  5.67205665960828109284e-01  8.53669261904332898894e-05 3
3.16666666666666651864e-01  7.58333333333333303727e-01  5.77217604025354824593e-01  8.51189195573143209117e-05 3
3.25000000000000011102e-01  7.58333333333333303727e-01  5.86833945977046522735e-01  8.48125763674989485708e-05 3
3.33333333333333314830e-01  7.58333333333333303727e-01  5.96048101254793571968e-01  8.44481072558300738251e-05 3
3.41666666666666674068e-01  7.58333333333333303727e-01  6.04853754937612286824e-01  8.40257612251260610492e-05 3
3.49999999999999977796e-01  7.58333333333333303727e-01  6.13244872069509394663e-01  8.35458285413093193483e-05 3
3.58333333333333337034e-01  7.58333333333333303727e-01  6.21215701798786934518e-01  8.30086372878291456345e-05 3
3.66666666666666640761e-01  7.58333333333333303727e-01  6.28760781316134331753e-01  8.24145563946832027113e-05 3
3.75000000000000000000e-01  7.58333333333333303727e-01  6.35874939601455468896e-01  8.17639924953761365600e-05 3
3.83333333333333359239e-01  7.58333333333333303727e-01  6.42553300965540974410e-01  8.10573919344248494667e-05 3
3.91666666666666662966e-01  7.58333333333333303727e-01  6.48791288393924525657e-01  8.02952381597776820854e-05 3
4.00000000000000022204e-01  7.58333333333333303727e-01  6.54584626680517867037e-01  7.94780546126139242347e-05 3
4.08333333333333325932e-01  7.58333333333333303727e-01  6.59929345361636721101e-01  7.86064003562847446460e-05 3
4.16666666666666685170e-01  7.58333333333333303727e-01  6.64821781433311387310e-01  7.76808735392098270722e-05 3
4.24999999999999988898e-01  7.58333333333333303727e-01  6.69258581865005086620e-01  7.67021077071605716924e-05 3
4.33333333333333348136e-01  7.58333333333333303727e-01  6.73236705894432851949e-01  7.56707745497298134296e-05 3
4.41666666666666651864e-01  7.58333333333333303727e-01  6.76753427114994199343e-01  7.45875799932349536903e-05 3
4.50000000000000011102e-01  7.58333333333333303727e-01  6.79806335340805256706e-01  7.34532672290733046339e-05 3
4.58333333333333314830e-01  7.58333333333333303727e-01  6.82393338261808812817e-01  7.22686129134286758813e-05 3
4.66666666666666674068e-01  7.58333333333333303727e-01  6.84512662874726784956e-01  7.10344296491749460642e-05 3
4.74999999999999977796e-01  7.58333333333333303727e-01  6.86162856701029610917e-01  6.97515625864841837256e-05 3
4.83333333333333337034e-01  7.58333333333333303727e-01  6.87342788779643942831e-01  6.84208915919803928318e-05 3
4.91666666666666640761e-01  7.58333333333333303727e-01  6.88051650444764684167e-01  6.70433279383875202484e-05 3
5.00000000000000000000e-01  7.58333333333333303727e-01  6.88288955877106700676e-01  6.56198166475441269085e-05 3
5.08333333333333303727e-01  7.58333333333333303727e-01  6.88054542440168503958e-01  6.41513325345677287714e-05 3
5.16666666666666718477e-01  7.58333333333333303727e-01  6.87348570789149793114e-01  6.26388820861301098830e-05 3
5.25000000000000022204e-01  7.58333333333333303727e-01  6.86171524761111872870e-01  6.10835025042222312663e-05 3
5.33333333333333325932e-01  7.58333333333333303727e-01  6.84524211045214325821e-01  5.94862591617451030857e-05 3
5.41666666666666629659e-01  7.58333333333333303727e-01  6.82407758627947780283e-01  5.78482467745722317432e-05 3
5.50000000000000044409e-01  7.58333333333333303727e-01  6.79823618019749886798e-01  5.61705882843321901987e-05 3
5.58333333333333348136e-01  7.58333333333333303727e-01  6.76773560261735629418e-01  5.44544332519159013373e-05 3
5.66666666666666651864e-01  7.58333333333333303727e-01  6.73259675711237348672e-01  5.27009577452330901792e-05 3
5.74999999999999955591e-01  7.58333333333333303727e-01  6.69284372608980659969e-01  5.09113637316982448056e-05 3
5.83333333333333370341e-01  7.58333333333333303727e-01  6.64850375429234086155e-01  4.90868776165109821363e-05 3
5.91666666666666674068e-01  7.58333333333333303727e-01  6.59960723012249617092e-01  4.72287497433887537568e-05 3
5.99999999999999977796e-01  7.58333333333333303727e-01  6.54618766481383396183e-01  4.53382537471958002584e-05 3
6.08333333333333281523e-01  7.58333333333333303727e-01  6.48828166946957884953e-01  4.34166851264183861758e-05 3
6.16666666666666696273e-01  7.58333333333333303727e-01  6.42592892996759923463e-01  4.14653607154757963826e-05 3
6.25000000000000000000e-01  7.58333333333333303727e-01  6.35917217975641047012e-01  3.94856183097980206753e-05 3
6.33333333333333303727e-01  7.58333333333333303727e-01  6.28805717058322777291e-01  3.74788142063486873212e-05 3
6.41666666666666718477e-01  7.58333333333333303727e-01  6.21263264111987734140e-01  3.54463240870295237528e-05 3
6.50000000000000022204e-01  7.58333333333333303727e-01  6.13295028357055405088e-01  3.33895409954099164906e-05 3
6.58333333333333325932e-01  7.58333333333333303727e-01  6.04906470824875475145e-01  3.13098739619377397503e-05 3
6.66666666666666629659e-01  7.58333333333333303727e-01  5.96103340612782139907e-01  2.92087492673731574655e-05 3
6.75000000000000044409e-01  7.58333333333333303727e-01  5.86891670947757737586e-01  2.70876056563951195244e-05 3
6.83333333333333348136e-01  7.58333333333333303727e-01  5.77277775046317498386e-01  2.49478985946405273921e-05 3
6.91666666666666651864e-01  7.58333333333333303727e-01  5.67268241794992134075e-01  2.27910920264084992937e-05 3
6.99999999999999955591e-01  7.58333333333333303727e-01  5.56869931225051906232e-01  2.06186669514663023506e-05 3
7.08333333333333370341e-01  7.58333333333333303727e-01  5.46089969821368259595e-01  1.84321100274997817792e-05 3
7.16666666666666674068e-01  7.58333333333333303727e-01  5.34935745629781300714e-01  1.62329210466882756236e-05 3
7.24999999999999977796e-01  7.58333333333333303727e-01  5.23414903199060810302e-01  1.40226065480364425753e-05 3
7.33333333333333281523e-01  7.58333333333333303727e-01  5.11535338338588330132e-01  1.18026819125871540450e-05 3
7.41666666666666696273e-01  7.58333333333333303727e-01  4.99305192709035505771e-01  9.57466825152186729042e-06 3
7.50000000000000000000e-01  7.58333333333333303727e-01  4.86732848241157201041e-01  7.34009268510416035269e-06 3
7.58333333333333303727e-01  7.58333333333333303727e-01  4.73826921392294708735e-01  5.10048623375558562998e-06 3
7.66666666666666718477e-01  7.58333333333333303727e-01  4.60596257239273887407e-01  2.85738458233320002932e-06 3
7.75000000000000022204e-01  7.58333333333333303727e-01  4.47049923419126471469e-01  6.12324333959524125248e-07 3
7.83333333333333325932e-01  7.58333333333333303727e-01  4.33197203911820483135e-01  1.63315528217689021062e-06 3
7.91666666666666629659e-01  7.58333333333333303727e-01  4.19047592680106550933e-01  3.87751608499353750403e-06 3
8.00000000000000044409e-01  7.58333333333333303727e-01  4.04610787159868756646e-01  6.11921903703738223612e-06 3
8.08333333333333348136e-01  7.58333333333333303727e-01  3.89896681616890894428e-01  8.35672820154176321239e-06 3
8.16666666666666651864e-01  7.58333333333333303727e-01  3.74915360364408700722e-01  1.05885103838243566088e-05 3
8.24999999999999955591e-01  7.58333333333333303727e-01  3.59677090850963054880e-01  1.28130353204691793678e-05 3
8.33333333333333370341e-01  7.58333333333333303727e-01  3.44192316626071914687e-01  1.50287791948477966741e-05 3
8.41666666666666674068e-01  7.58333333333333303727e-01  3.28471650179881224929e-01  1.72342228205168979116e-05 3
8.49999999999999977796e-01  7.58333333333333303727e-01  3.12525865672306835119e-01  1.94278550956217266332e-05 3
8.58333333333333281523e-01  7.58333333333333303727e-01  2.96365891547525850402e-01  2.16081725988304107489e-05 3
8.66666666666666696273e-01  7.58333333333333303727e-01  2.80002803044298032020e-01  2.37736807537358707521e-05 3
8.75000000000000000000e-01  7.58333333333333303727e-01  2.63447814606324826059e-01  2.59228956238644059340e-05 3
8.83333333333333303727e-01  7.58333333333333303727e-01  2.46712272195959397836e-01  2.80543444632352922952e-05 3
8.91666666666666718477e-01  7.58333333333333303727e-01  2.29807645517488196019e-01  3.01665659611927150507e-05 3
9.00000000000000022204e-01  7.58333333333333303727e-01  2.12745520158103440522e-01  3.22581129772181451898e-05 3
9.08333333333333325932e-01  7.58333333333333303727e-01  1.95537589646010062649e-01  3.43275518260854894947e-05 3
9.16666666666666629659e-01  7.58333333333333303727e-01  1.78195647437322579609e-01  3.63734643140933844307e-05 3
9.25000000000000044409e-01  7.58333333333333303727e-01  1.60731578833000959827e-01  3.83944482950371313024e-05 3
9.33333333333333348136e-01  7.58333333333333303727e-01  1.43157352833132356373e-01  4.03891185026261645419e-05 3
9.41666666666666651864e-01  7.58333333333333303727e-01  1.25485013934660799562e-01  4.23561081851209220162e-05 3
9.49999999999999955591e-01  7.58333333333333303727e-01  1.07726673875658693347e-01  4.42940690110610324481e-05 3
9.58333333333333370341e-01  7.58333333333333303727e-01  8.98945033354685008042e-02  4.62016729134984149852e-05 3
9.66666666666666674068e-01  7.58333333333333303727e-01  7.20007235930393840739e-02  4.80776125134224630031e-05 3
9.74999999999999977796e-01  7.58333333333333303727e-01  5.40575981511450878725e-02  4.99206020886516776969e-05 3
9.83333333333333281523e-01  7.58333333333333303727e-01  3.60774243317593876212e-02  5.17293786206074468481e-05 3
9.91666666666666696273e-01  7.58333333333333303727e-01  1.80453602659039133438e-02  2.63381204806713287159e-05 3
1.00000000000000000000e+00  7.58333333333333303727e-01  0.00000000000000000000e+00  8.42991227801790565643e-17 3
0.00000000000000000000e+00  7.66666666666666718477e-01  0.00000000000000000000e+00  0.00000000000000000000e+00 3
8.33333333333333321769e-03  7.66666666666666718477e-01  1.74853843708102606180e-02  3.04129230613812973072e-05 3
1.66666666666666664354e-02  7.66666666666666718477e-01  3.49597366984494908881e-02  5.98534367621736396181e-05 3
2.50000000000000013878e-02  7.66666666666666718477e-01  5.24379594373826085629e-02  6.14228613579625992713e-05 3
3.33333333333333328707e-02  7.66666666666666718477e-01  6.98802438182523077970e-02  6.29501897922712938538e-05 3
4.16666666666666643537e-02  7.66666666666666718477e-01  8.72746357706022241052e-02  6.44343753137405217402e-05 3
5.00000000000000027756e-02  7.66666666666666718477e-01  1.04609214047064150166e-01  6.58744007291101052459e-05 3
5.83333333333333342585e-02  7.66666666666666718477e-01  1.21872098393561584251e-01  6.72692791241769061372e-05 3
6.66666666666666657415e-02  7.66666666666666718477e-01  1.39051457691471036515e-01  6.86180545116654716509e-05 3
7.49999999999999972244e-02  7.66666666666666718477e-01  1.56135518066051914854e-01  6.99198025143066281828e-05 3
8.33333333333333287074e-02  7.66666666666666718477e-01  1.73112570955692546271e-01  7.11736309777777353958e-05 3
9.16666666666666601904e-02  7.66666666666666718477e-01  1.89970981136363403774e-01  7.23786805923998244339e-05 3
1.00000000000000005551e-01  7.66666666666666718477e-01  2.06699194695829396862e-01  7.35341254709809266643e-05 3
1.08333333333333337034e-01  7.66666666666666718477e-01  2.23285746952114644293e-01  7.46391737244667119455e-05 3
1.16666666666666668517e-01  7.66666666666666718477e-01  2.39719270310792209600e-01  7.56930680352041473924e-05 3
1.25000000000000000000e-01  7.66666666666666718477e-01  2.55988502055855382533e-01  7.66950860861537186963e-05 3
1.33333333333333331483e-01  7.66666666666666718477e-01  2.72082292068525688489e-01  7.76445411508897009867e-05 3
1.41666666666666662966e-01  7.66666666666666718477e-01  2.87989610469017665029e-01  7.85407825338313436703e-05 3
1.49999999999999994449e-01  7.66666666666666718477e-01  3.03699555175874769120e-01  7.93831960091417876413e-05 3
1.58333333333333325932e-01  7.66666666666666718477e-01  3.19201359377792981409e-01  8.01712041597624214262e-05 3
1.66666666666666657415e-01  7.66666666666666718477e-01  3.34484398912435698659e-01  8.09042669932535929433e-05 3
1.74999999999999988898e-01  7.66666666666666718477e-01  3.49538199547905548137e-01  8.15818821102709534898e-05 3