Titile = 'Poisson'  
VARIABLES = X, Y, U, Error, Rank 
zone N= 1771, E = 3200
DATAPACKING=POINT, ZONETYPE=FETRIANGLE
0.00000000000000000000e+00  0.00000000000000000000e+00  0.00000000000000000000e+00  0.00000000000000000000e+00 0
6.25000000000000034694e-03  0.00000000000000000000e+00  0.00000000000000000000e+00  0.00000000000000000000e+00 0
1.25000000000000006939e-02  0.00000000000000000000e+00  0.00000000000000000000e+00  0.00000000000000000000e+00 0
1.87499999999999993061e-02  0.00000000000000000000e+00  0.00000000000000000000e+00  0.00000000000000000000e+00 0
2.50000000000000013878e-02  0.00000000000000000000e+00  0.00000000000000000000e+00  0.00000000000000000000e+00 0
3.12500000000000000000e-02  0.00000000000000000000e+00  0.00000000000000000000e+00  0.00000000000000000000e+00 0
3.74999999999999986122e-02  0.00000000000000000000e+00  0.00000000000000000000e+00  0.00000000000000000000e+00 0
4.37499999999999972244e-02  0.00000000000000000000e+00  0.00000000000000000000e+00  0.00000000000000000000e+00 0
5.00000000000000027756e-02  0.00000000000000000000e+00  0.00000000000000000000e+00  0.00000000000000000000e+00 0
5.62500000000000013878e-02  0.00000000000000000000e+00  0.00000000000000000000e+00  0.00000000000000000000e+00 0
6.25000000000000000000e-02  0.00000000000000000000e+00  0.00000000000000000000e+00  0.00000000000000000000e+00 0
6.87500000000000055511e-02  0.00000000000000000000e+00  0.00000000000000000000e+00  0.00000000000000000000e+00 0
7.49999999999999972244e-02  0.00000000000000000000e+00  0.00000000000000000000e+00  0.00000000000000000000e+00 0
8.12500000000000027756e-02  0.00000000000000000000e+00  0.00000000000000000000e+00  0.00000000000000000000e+00 0
8.74999999999999944489e-02  0.00000000000000000000e+00  0.00000000000000000000e+00  0.00000000000000000000e+00 0
9.37500000000000000000e-02  0.00000000000000000000e+00  0.00000000000000000000e+00  0.00000000000000000000e+00 0
1.00000000000000005551e-01  0.00000000000000000000e+00  0.00000000000000000000e+00  0.00000000000000000000e+00 0
1.06249999999999997224e-01  0.00000000000000000000e+00  0.00000000000000000000e+00  0.00000000000000000000e+00 0
1.12500000000000002776e-01  0.00000000000000000000e+00  0.00000000000000000000e+00  0.00000000000000000000e+00 0
1.18749999999999994449e-01  0.00000000000000000000e+00  0.00000000000000000000e+00  0.00000000000000000000e+00 0
1.25000000000000000000e-01  0.00000000000000000000e+00  0.00000000000000000000e+00  0.00000000000000000000e+00 0
1.31250000000000005551e-01  0.00000000000000000000e+00  0.00000000000000000000e+00  0.00000000000000000000e+00 0
1.37500000000000011102e-01  0.00000000000000000000e+00  0.00000000000000000000e+00  0.00000000000000000000e+00 0
1.43749999999999988898e-01  0.00000000000000000000e+00  0.00000000000000000000e+00  0.00000000000000000000e+00 0
1.49999999999999994449e-01  0.00000000000000000000e+00  0.00000000000000000000e+00  0.00000000000000000000e+00 0
1.56250000000000000000e-01  0.00000000000000000000e+00  0.00000000000000000000e+00  0.00000000000000000000e+00 0
1.62500000000000005551e-01  0.00000000000000000000e+00  0.00000000000000000000e+00  0.00000000000000000000e+00 0
1.68750000000000011102e-01  0.00000000000000000000e+00  0.00000000000000000000e+00  0.00000000000000000000e+00 0
1.74999999999999988898e-01  0.00000000000000000000e+00  0.00000000000000000000e+00  0.00000000000000000000e+00 0
1.81249999999999994449e-01  0.00000000000000000000e+00  0.00000000000000000000e+00  0.00000000000000000000e+00 0
1.87500000000000000000e-01  0.00000000000000000000e+00  0.00000000000000000000e+00  0.00000000000000000000e+00 0
1.93750000000000005551e-01  0.00000000000000000000e+00  0.00000000000000000000e+00  0.00000000000000000000e+00 0
2.00000000000000011102e-01  0.00000000000000000000e+00  0.00000000000000000000e+00  0.00000000000000000000e+00 0
2.06249999999999988898e-01  0.00000000000000000000e+00  0.00000000000000000000e+00  0.00000000000000000000e+00 0
2.12499999999999994449e-01  0.00000000000000000000e+00  0.00000000000000000000e+00  0.00000000000000000000e+00 0
2.18750000000000000000e-01  0.00000000000000000000e+00  0.00000000000000000000e+00  0.00000000000000000000e+00 0
2.25000000000000005551e-01  0.00000000000000000000e+00  0.00000000000000000000e+00  0.00000000000000000000e+00 0
2.31250000000000011102e-01  0.00000000000000000000e+00  0.00000000000000000000e+00  0.00000000000000000000e+00 0
2.37499999999999988898e-01  0.00000000000000000000e+00  0.00000000000000000000e+00  0.00000000000000000000e+00 0
2.43749999999999994449e-01  0.00000000000000000000e+00  0.00000000000000000000e+00  0.00000000000000000000e+00 0
2.50000000000000000000e-01  0.00000000000000000000e+00  0.00000000000000000000e+00  0.00000000000000000000e+00 0
2.56249999999999977796e-01  0.00000000000000000000e+00  0.00000000000000000000e+00  0.00000000000000000000e+00 0
2.62500000000000011102e-01  0.00000000000000000000e+00  0.00000000000000000000e+00  0.00000000000000000000e+00 0
2.68749999999999988898e-01  0.00000000000000000000e+00  0.00000000000000000000e+00  0.00000000000000000000e+00 0
2.75000000000000022204e-01  0.00000000000000000000e+00  0.00000000000000000000e+00  0.00000000000000000000e+00 0
2.81250000000000000000e-01  0.00000000000000000000e+00  0.00000000000000000000e+00  0.00000000000000000000e+00 0
2.87499999999999977796e-01  0.00000000000000000000e+00  0.00000000000000000000e+00  0.00000000000000000000e+00 0
2.93750000000000011102e-01  0.00000000000000000000e+00  0.00000000000000000000e+00  0.00000000000000000000e+00 0
2.99999999999999988898e-01  0.00000000000000000000e+00  0.00000000000000000000e+00  0.00000000000000000000e+00 0
3.06250000000000022204e-01  0.00000000000000000000e+00  0.00000000000000000000e+00  0.00000000000000000000e+00 0
3.12500000000000000000e-01  0.00000000000000000000e+00  0.00000000000000000000e+00  0.00000000000000000000e+00 0
3.18749999999999977796e-01  0.00000000000000000000e+00  0.00000000000000000000e+00  0.00000000000000000000e+00 0
3.25000000000000011102e-01  0.00000000000000000000e+00  0.00000000000000000000e+00  0.00000000000000000000e+00 0
3.31249999999999988898e-01  0.00000000000000000000e+00  0.00000000000000000000e+00  0.00000000000000000000e+00 0
3.37500000000000022204e-01  0.00000000000000000000e+00  0.00000000000000000000e+00  0.00000000000000000000e+00 0
3.43750000000000000000e-01  0.00000000000000000000e+00  0.00000000000000000000e+00  0.00000000000000000000e+00 0
3.49999999999999977796e-01  0.00000000000000000000e+00  0.00000000000000000000e+00  0.00000000000000000000e+00 0
3.56250000000000011102e-01  0.00000000000000000000e+00  0.00000000000000000000e+00  0.00000000000000000000e+00 0
3.62499999999999988898e-01  0.00000000000000000000e+00  0.00000000000000000000e+00  0.00000000000000000000e+00 0
3.68750000000000022204e-01  0.00000000000000000000e+00  0.00000000000000000000e+00  0.00000000000000000000e+00 0
3.75000000000000000000e-01  0.00000000000000000000e+00  0.00000000000000000000e+00  0.00000000000000000000e+00 0
3.81249999999999977796e-01  0.00000000000000000000e+00  0.00000000000000000000e+00  0.00000000000000000000e+00 0
3.87500000000000011102e-01  0.00000000000000000000e+00  0.00000000000000000000e+00  0.00000000000000000000e+00 0
3.93749999999999988898e-01  0.00000000000000000000e+00  0.00000000000000000000e+00  0.00000000000000000000e+00 0
4.00000000000000022204e-01  0.00000000000000000000e+00  0.00000000000000000000e+00  0.00000000000000000000e+00 0
4.06250000000000000000e-01  0.00000000000000000000e+00  0.00000000000000000000e+00  0.00000000000000000000e+00 0
4.12499999999999977796e-01  0.00000000000000000000e+00  0.00000000000000000000e+00  0.00000000000000000000e+00 0
4.18750000000000011102e-01  0.00000000000000000000e+00  0.00000000000000000000e+00  0.00000000000000000000e+00 0
4.24999999999999988898e-01  0.00000000000000000000e+00  0.00000000000000000000e+00  0.00000000000000000000e+00 0
4.31250000000000022204e-01  0.00000000000000000000e+00  0.00000000000000000000e+00  0.00000000000000000000e+00 0
4.37500000000000000000e-01  0.00000000000000000000e+00  0.00000000000000000000e+00  0.00000000000000000000e+00 0
4.43749999999999977796e-01  0.00000000000000000000e+00  0.00000000000000000000e+00  0.00000000000000000000e+00 0
4.50000000000000011102e-01  0.00000000000000000000e+00  0.00000000000000000000e+00  0.00000000000000000000e+00 0
4.56249999999999988898e-01  0.00000000000000000000e+00  0.00000000000000000000e+00  0.00000000000000000000e+00 0
4.62500000000000022204e-01  0.00000000000000000000e+00  0.00000000000000000000e+00  0.00000000000000000000e+00 0
4.68750000000000000000e-01  0.00000000000000000000e+00  0.00000000000000000000e+00  0.00000000000000000000e+00 0
4.74999999999999977796e-01  0.00000000000000000000e+00  0.00000000000000000000e+00  0.00000000000000000000e+00 0
4.81250000000000011102e-01  0.00000000000000000000e+00  0.00000000000000000000e+00  0.00000000000000000000e+00 0
4.87499999999999988898e-01  0.00000000000000000000e+00  0.00000000000000000000e+00  0.00000000000000000000e+00 0
4.93750000000000022204e-01  0.00000000000000000000e+00  0.00000000000000000000e+00  0.00000000000000000000e+00 0
5.00000000000000000000e-01  0.00000000000000000000e+00  0.00000000000000000000e+00  0.00000000000000000000e+00 0
5.06249999999999977796e-01  0.00000000000000000000e+00  0.00000000000000000000e+00  0.00000000000000000000e+00 0
5.12499999999999955591e-01  0.00000000000000000000e+00  0.00000000000000000000e+00  0.00000000000000000000e+00 0
5.18750000000000044409e-01  0.00000000000000000000e+00  0.00000000000000000000e+00  0.00000000000000000000e+00 0
5.25000000000000022204e-01  0.00000000000000000000e+00  0.00000000000000000000e+00  0.00000000000000000000e+00 0
5.31250000000000000000e-01  0.00000000000000000000e+00  0.00000000000000000000e+00  0.00000000000000000000e+00 0
5.37499999999999977796e-01  0.00000000000000000000e+00  0.00000000000000000000e+00  0.00000000000000000000e+00 0
5.43749999999999955591e-01  0.00000000000000000000e+00  0.00000000000000000000e+00  0.00000000000000000000e+00 0
5.50000000000000044409e-01  0.00000000000000000000e+00  0.00000000000000000000e+00  0.00000000000000000000e+00 0
5.56250000000000022204e-01  0.00000000000000000000e+00  0.00000000000000000000e+00  0.00000000000000000000e+00 0
5.62500000000000000000e-01  0.00000000000000000000e+00  0.00000000000000000000e+00  0.00000000000000000000e+00 0
5.68749999999999977796e-01  0.00000000000000000000e+00  0.00000000000000000000e+00  0.00000000000000000000e+00 0
5.74999999999999955591e-01  0.00000000000000000000e+00  0.00000000000000000000e+00  0.00000000000000000000e+00 0
5.81250000000000044409e-01  0.00000000000000000000e+00  0.00000000000000000000e+00  0.00000000000000000000e+00 0
5.87500000000000022204e-01  0.00000000000000000000e+00  0.00000000000000000000e+00  0.00000000000000000000e+00 0
5.93750000000000000000e-01  0.00000000000000000000e+00  0.00000000000000000000e+00  0.00000000000000000000e+00 0
5.99999999999999977796e-01  0.00000000000000000000e+00  0.00000000000000000000e+00  0.00000000000000000000e+00 0
6.06249999999999955591e-01  0.00000000000000000000e+00  0.00000000000000000000e+00  0.00000000000000000000e+00 0
6.12500000000000044409e-01  0.00000000000000000000e+00  0.00000000000000000000e+00  0.00000000000000000000e+00 0
6.18750000000000022204e-01  0.00000000000000000000e+00  0.00000000000000000000e+00  0.00000000000000000000e+00 0
6.25000000000000000000e-01  0.00000000000000000000e+00  0.00000000000000000000e+00  0.00000000000000000000e+00 0
6.31249999999999977796e-01  0.00000000000000000000e+00  0.00000000000000000000e+00  0.00000000000000000000e+00 0
6.37499999999999955591e-01  0.00000000000000000000e+00  0.00000000000000000000e+00  0.00000000000000000000e+00 0
6.43750000000000044409e-01  0.00000000000000000000e+00  0.00000000000000000000e+00  0.00000000000000000000e+00 0
6.50000000000000022204e-01  0.00000000000000000000e+00  0.00000000000000000000e+00  0.00000000000000000000e+00 0
6.56250000000000000000e-01  0.00000000000000000000e+00  0.00000000000000000000e+00  0.00000000000000000000e+00 0
6.62499999999999977796e-01  0.00000000000000000000e+00  0.00000000000000000000e+00  0.00000000000000000000e+00 0
6.68749999999999955591e-01  0.00000000000000000000e+00  0.00000000000000000000e+00  0.00000000000000000000e+00 0
6.75000000000000044409e-01  0.00000000000000000000e+00  0.00000000000000000000e+00  0.00000000000000000000e+00 0
6.81250000000000022204e-01  0.00000000000000000000e+00  0.00000000000000000000e+00  0.00000000000000000000e+00 0
6.87500000000000000000e-01  0.00000000000000000000e+00  0.00000000000000000000e+00  0.00000000000000000000e+00 0
6.93749999999999977796e-01  0.00000000000000000000e+00  0.00000000000000000000e+00  0.00000000000000000000e+00 0
6.99999999999999955591e-01  0.00000000000000000000e+00  0.00000000000000000000e+00  0.00000000000000000000e+00 0
7.06250000000000044409e-01  0.00000000000000000000e+00  0.00000000000000000000e+00  0.00000000000000000000e+00 0
7.12500000000000022204e-01  0.00000000000000000000e+00  0.00000000000000000000e+00  0.00000000000000000000e+00 0
7.18750000000000000000e-01  0.00000000000000000000e+00  0.00000000000000000000e+00  0.00000000000000000000e+00 0
7.24999999999999977796e-01  0.00000000000000000000e+00  0.00000000000000000000e+00  0.00000000000000000000e+00 0
7.31249999999999955591e-01  0.00000000000000000000e+00  0.00000000000000000000e+00  0.00000000000000000000e+00 0
7.37500000000000044409e-01  0.00000000000000000000e+00  0.00000000000000000000e+00  0.00000000000000000000e+00 0
7.43750000000000022204e-01  0.00000000000000000000e+00  0.00000000000000000000e+00  0.00000000000000000000e+00 0
7.50000000000000000000e-01  0.00000000000000000000e+00  0.00000000000000000000e+00  0.00000000000000000000e+00 0
7.56249999999999977796e-01  0.00000000000000000000e+00  0.00000000000000000000e+00  0.00000000000000000000e+00 0
7.62499999999999955591e-01  0.00000000000000000000e+00  0.00000000000000000000e+00  0.00000000000000000000e+00 0
7.68750000000000044409e-01  0.00000000000000000000e+00  0.00000000000000000000e+00  0.00000000000000000000e+00 0
7.75000000000000022204e-01  0.00000000000000000000e+00  0.00000000000000000000e+00  0.00000000000000000000e+00 0
7.81250000000000000000e-01  0.00000000000000000000e+00  0.00000000000000000000e+00  0.00000000000000000000e+00 0
7.87499999999999977796e-01  0.00000000000000000000e+00  0.00000000000000000000e+00  0.00000000000000000000e+00 0
7.93749999999999955591e-01  0.00000000000000000000e+00  0.00000000000000000000e+00  0.00000000000000000000e+00 0
8.00000000000000044409e-01  0.00000000000000000000e+00  0.00000000000000000000e+00  0.00000000000000000000e+00 0
8.06250000000000022204e-01  0.00000000000000000000e+00  0.00000000000000000000e+00  0.00000000000000000000e+00 0
8.12500000000000000000e-01  0.00000000000000000000e+00  0.00000000000000000000e+00  0.00000000000000000000e+00 0
8.18749999999999977796e-01  0.00000000000000000000e+00  0.00000000000000000000e+00  0.00000000000000000000e+00 0
8.24999999999999955591e-01  0.00000000000000000000e+00  0.00000000000000000000e+00  0.00000000000000000000e+00 0
8.31250000000000044409e-01  0.00000000000000000000e+00  0.00000000000000000000e+00  0.00000000000000000000e+00 0
8.37500000000000022204e-01  0.00000000000000000000e+00  0.00000000000000000000e+00  0.00000000000000000000e+00 0
8.43750000000000000000e-01  0.00000000000000000000e+00  0.00000000000000000000e+00  0.00000000000000000000e+00 0
8.49999999999999977796e-01  0.00000000000000000000e+00  0.00000000000000000000e+00  0.00000000000000000000e+00 0
8.56249999999999955591e-01  0.00000000000000000000e+00  0.00000000000000000000e+00  0.00000000000000000000e+00 0
8.62500000000000044409e-01  0.00000000000000000000e+00  0.00000000000000000000e+00  0.00000000000000000000e+00 0
8.68750000000000022204e-01  0.00000000000000000000e+00  0.00000000000000000000e+00  0.00000000000000000000e+00 0
8.75000000000000000000e-01  0.00000000000000000000e+00  0.00000000000000000000e+00  0.00000000000000000000e+00 0
8.81249999999999977796e-01  0.00000000000000000000e+00  0.00000000000000000000e+00  0.00000000000000000000e+00 0
8.87499999999999955591e-01  0.00000000000000000000e+00  0.00000000000000000000e+00  0.00000000000000000000e+00 0
8.93750000000000044409e-01  0.00000000000000000000e+00  0.00000000000000000000e+00  0.00000000000000000000e+00 0
9.00000000000000022204e-01  0.00000000000000000000e+00  0.00000000000000000000e+00  0.00000000000000000000e+00 0
9.06250000000000000000e-01  0.00000000000000000000e+00  0.00000000000000000000e+00  0.00000000000000000000e+00 0
9.12499999999999977796e-01  0.00000000000000000000e+00  0.00000000000000000000e+00  0.00000000000000000000e+00 0
9.18749999999999955591e-01  0.00000000000000000000e+00  0.00000000000000000000e+00  0.00000000000000000000e+00 0
9.25000000000000044409e-01  0.00000000000000000000e+00  0.00000000000000000000e+00  0.00000000000000000000e+00 0
9.31250000000000022204e-01  0.00000000000000000000e+00  0.00000000000000000000e+00  0.00000000000000000000e+00 0
9.37500000000000000000e-01  0.00000000000000000000e+00  0.00000000000000000000e+00  0.00000000000000000000e+00 0
9.43749999999999977796e-01  0.00000000000000000000e+00  0.00000000000000000000e+00  0.00000000000000000000e+00 0
9.49999999999999955591e-01  0.00000000000000000000e+00  0.00000000000000000000e+00  0.00000000000000000000e+00 0
9.56250000000000044409e-01  0.00000000000000000000e+00  0.00000000000000000000e+00  0.00000000000000000000e+00 0
9.62500000000000022204e-01  0.00000000000000000000e+00  0.00000000000000000000e+00  0.00000000000000000000e+00 0
9.68750000000000000000e-01  0.00000000000000000000e+00  0.00000000000000000000e+00  0.00000000000000000000e+00 0
9.74999999999999977796e-01  0.00000000000000000000e+00  0.00000000000000000000e+00  0.00000000000000000000e+00 0
9.81249999999999955591e-01  0.00000000000000000000e+00  0.00000000000000000000e+00  0.00000000000000000000e+00 0
9.87500000000000044409e-01  0.00000000000000000000e+00  0.00000000000000000000e+00  0.00000000000000000000e+00 0
9.93750000000000022204e-01  0.00000000000000000000e+00  0.00000000000000000000e+00  0.00000000000000000000e+00 0
1.00000000000000000000e+00  0.00000000000000000000e+00  0.00000000000000000000e+00  0.00000000000000000000e+00 0
0.00000000000000000000e+00  6.25000000000000034694e-03  0.00000000000000000000e+00  0.00000000000000000000e+00 0
6.25000000000000034694e-03  6.25000000000000034694e-03  3.85983611688000172353e-04  5.01732049467621798317e-07 0
1.25000000000000006939e-02  6.25000000000000034694e-03  7.92432420352311584627e-04  2.16172716778301144888e-05 0
1.87499999999999993061e-02  6.25000000000000034694e-03  1.17742700352006443576e-03  2.15757497225852520190e-05 0
2.50000000000000013878e-02  6.25000000000000034694e-03  1.56196766616461743538e-03  2.15259099051140316561e-05 0
3.12500000000000000000e-02  6.25000000000000034694e-03  1.94590616054044775705e-03  2.14677714396075639686e-05 0
3.74999999999999986122e-02  6.25000000000000034694e-03  2.32909447104937602363e-03  2.14013567395570508678e-05 0
4.37499999999999972244e-02  6.25000000000000034694e-03  2.71138487130336090086e-03  2.13266914090765903611e-05 0
5.00000000000000027756e-02  6.25000000000000034694e-03  3.09262998107590753039e-03  2.12438042331052415190e-05 0
5.62500000000000013878e-02  6.25000000000000034694e-03  3.47268282311983221555e-03  2.11527271661939887670e-05 0
6.25000000000000000000e-02  6.25000000000000034694e-03  3.85139687982990292989e-03  2.10534953202982759446e-05 0
6.87500000000000055511e-02  6.25000000000000034694e-03  4.22862614972812494996e-03  2.09461469512011930205e-05 0
7.49999999999999972244e-02  6.25000000000000034694e-03  4.60422520375002638365e-03  2.08307234437063101828e-05 0
8.12500000000000027756e-02  6.25000000000000034694e-03  4.97804924131047942665e-03  2.07072692958226375892e-05 0
8.74999999999999944489e-02  6.25000000000000034694e-03  5.34995414612684898337e-03  2.05758321013861655846e-05 0
9.37500000000000000000e-02  6.25000000000000034694e-03  5.71979654177890480676e-03  2.04364625320477971693e-05 0
1.00000000000000005551e-01  6.25000000000000034694e-03  6.08743384698280567274e-03  2.02892143173830086234e-05 0
1.06249999999999997224e-01  6.25000000000000034694e-03  6.45272433055905751675e-03  2.01341442243397131251e-05 0
1.12500000000000002776e-01  6.25000000000000034694e-03  6.81552716607267301818e-03  1.99713120354440623605e-05 0
1.18749999999999994449e-01  6.25000000000000034694e-03  7.17570248612427359636e-03  1.98007805255855096060e-05 0
1.25000000000000000000e-01  6.25000000000000034694e-03  7.53311143627174127635e-03  1.96226154379180312004e-05 0
1.31250000000000005551e-01  6.25000000000000034694e-03  7.88761622856117353142e-03  1.94368854584455602597e-05 0
1.37500000000000011102e-01  6.25000000000000034694e-03  8.23908019464689340972e-03  1.92436621896680676302e-05 0
1.43749999999999988898e-01  6.25000000000000034694e-03  8.58736783847948229043e-03  1.90430201227661383134e-05 0
1.49999999999999994449e-01  6.25000000000000034694e-03  8.93234488854233524280e-03  1.88350366091220161602e-05 0
1.56250000000000000000e-01  6.25000000000000034694e-03  9.27387834961569505754e-03  1.86197918303227655246e-05 0
1.62500000000000005551e-01  6.25000000000000034694e-03  9.61183655404890952001e-03  1.83973687673064795201e-05 0
1.68750000000000011102e-01  6.25000000000000034694e-03  9.94608921252090709408e-03  1.81678531684624500198e-05 0
1.74999999999999988898e-01  6.25000000000000034694e-03  1.02765074642689989426e-02  1.79313335163661102811e-05 0
1.81249999999999994449e-01  6.25000000000000034694e-03  1.06029639267672132902e-02  1.76879009937229436655e-05 0
1.87500000000000000000e-01  6.25000000000000034694e-03  1.09253327448351963969e-02  1.74376494487243210996e-05 0
1.93750000000000005551e-01  6.25000000000000034694e-03  1.12434896391567333562e-02  1.71806753578290088980e-05 0
2.00000000000000011102e-01  6.25000000000000034694e-03  1.15573119541928226450e-02  1.69170777895889801190e-05 0
2.06249999999999988898e-01  6.25000000000000034694e-03  1.18666787054670947593e-02  1.66469583658471198540e-05 0
2.12499999999999994449e-01  6.25000000000000034694e-03  1.21714706262078323218e-02  1.63704212227458456574e-05 0
2.18750000000000000000e-01  6.25000000000000034694e-03  1.24715702133276259284e-02  1.60875729706324438473e-05 0
2.25000000000000005551e-01  6.25000000000000034694e-03  1.27668617727229542075e-02  1.57985226528628563969e-05 0
2.31250000000000011102e-01  6.25000000000000034694e-03  1.30572314638765802491e-02  1.55033817038803534150e-05 0
2.37499999999999988898e-01  6.25000000000000034694e-03  1.33425673437451187964e-02  1.52022639061319408960e-05 0
2.43749999999999994449e-01  6.25000000000000034694e-03  1.36227594099152683055e-02  1.48952853462648582283e-05 0
2.50000000000000000000e-01  6.25000000000000034694e-03  1.38976996430118463627e-02  1.45825643703845903021e-05 0
2.56249999999999977796e-01  6.25000000000000034694e-03  1.41672820483411780745e-02  1.42642215382893927655e-05 0
2.62500000000000011102e-01  6.25000000000000034694e-03  1.44314026967544278834e-02  1.39403795773544031400e-05 0
2.68749999999999988898e-01  6.25000000000000034694e-03  1.46899597647136628820e-02  1.36111633346220478602e-05 0
2.75000000000000022204e-01  6.25000000000000034694e-03  1.49428535735474550539e-02  1.32766997293434774186e-05 0
2.81250000000000000000e-01  6.25000000000000034694e-03  1.51899866278785641849e-02  1.29371177037297668821e-05 0
2.87499999999999977796e-01  6.25000000000000034694e-03  1.54312636532097126330e-02  1.25925481726761601120e-05 0
2.93750000000000011102e-01  6.25000000000000034694e-03  1.56665916326554181814e-02  1.22431239749920539595e-05 0
2.99999999999999988898e-01  6.25000000000000034694e-03  1.58958798427991064572e-02  1.18889798195326301666e-05 0
3.06250000000000022204e-01  6.25000000000000034694e-03  1.61190398886718634641e-02  1.15302522364114923281e-05 0
3.12500000000000000000e-01  6.25000000000000034694e-03  1.63359857378272098349e-02  1.11670795211911422218e-05 0
3.18749999999999977796e-01  6.25000000000000034694e-03  1.65466337535113104662e-02  1.07996016846349796037e-05 0
3.25000000000000011102e-01  6.25000000000000034694e-03  1.67509027269034729835e-02  1.04279603956591859770e-05 0
3.31249999999999988898e-01  6.25000000000000034694e-03  1.69487139084268101374e-02  1.00522989298530707192e-05 0
3.37500000000000022204e-01  6.25000000000000034694e-03  1.71399910381044261187e-02  9.67276211095297044906e-06 0
3.43750000000000000000e-01  6.25000000000000034694e-03  1.73246603749629239644e-02  9.28949625884911700524e-06 0
3.49999999999999977796e-01  6.25000000000000034694e-03  1.75026507254559988980e-02  8.90264912821459031278e-06 0
3.56250000000000011102e-01  6.25000000000000034694e-03  1.76738934709171936766e-02  8.51236985784098454388e-06 0
3.62499999999999988898e-01  6.25000000000000034694e-03  1.78383225940064935044e-02  8.11880890594016135786e-06 0
3.68750000000000022204e-01  6.25000000000000034694e-03  1.79958747041680834633e-02  7.72211799892480454943e-06 0
3.75000000000000000000e-01  6.25000000000000034694e-03  1.81464890620646052133e-02  7.32245006895490546661e-06 0
3.81249999999999977796e-01  6.25000000000000034694e-03  1.82901076029925342692e-02  6.91995919413837534684e-06 0
3.87500000000000011102e-01  6.25000000000000034694e-03  1.84266749592724744800e-02  6.51480054440420341955e-06 0
3.93749999999999988898e-01  6.25000000000000034694e-03  1.85561384815867945475e-02  6.10713031402171369066e-06 0
4.00000000000000022204e-01  6.25000000000000034694e-03  1.86784482592851491800e-02  5.69710566957620789807e-06 0
4.06250000000000000000e-01  6.25000000000000034694e-03  1.87935571396182742043e-02  5.28488468169024949717e-06 0
4.12499999999999977796e-01  6.25000000000000034694e-03  1.89014207459227666364e-02  4.87062627056375485601e-06 0
4.18750000000000011102e-01  6.25000000000000034694e-03  1.90019974947248301844e-02  4.45449014041185420432e-06 0
4.24999999999999988898e-01  6.25000000000000034694e-03  1.90952486117727873727e-02  4.03663671918325084320e-06 0
4.31250000000000022204e-01  6.25000000000000034694e-03  1.91811381469864303262e-02  3.61722709785877727384e-06 0
4.37500000000000000000e-01  6.25000000000000034694e-03  1.92596329883149182394e-02  3.19642296680092141692e-06 0
4.43749999999999977796e-01  6.25000000000000034694e-03  1.93307028745019378324e-02  2.77438655324133143232e-06 0
4.50000000000000011102e-01  6.25000000000000034694e-03  1.93943204067548100045e-02  2.35128056157510312296e-06 0
4.56249999999999988898e-01  6.25000000000000034694e-03  1.94504610593024228338e-02  1.92726810581064778027e-06 0
4.62500000000000022204e-01  6.25000000000000034694e-03  1.94991031888558027929e-02  1.50251265208789508421e-06 0
4.68750000000000000000e-01  6.25000000000000034694e-03  1.95402280429469478451e-02  1.07717795060080501202e-06 0
4.74999999999999977796e-01  6.25000000000000034694e-03  1.95738197671628325058e-02  6.51427977050450524032e-07 0
4.81250000000000011102e-01  6.25000000000000034694e-03  1.95998654112533067517e-02  2.25426865139988219511e-07 0
4.87499999999999988898e-01  6.25000000000000034694e-03  1.96183549341277033151e-02  2.00661152659209474081e-07 0
4.93750000000000022204e-01  6.25000000000000034694e-03  1.96292812077220601985e-02  6.26671812241352821360e-07 0
5.00000000000000000000e-01  6.25000000000000034694e-03  1.96326400197503990463e-02  1.05244087790154483564e-06 0
5.06249999999999977796e-01  6.25000000000000034694e-03  1.96284300753271426232e-02  1.47780420715892812922e-06 0
5.12499999999999955591e-01  6.25000000000000034694e-03  1.96166529974655598489e-02  1.90259781480267564646e-06 0
5.18750000000000044409e-01  6.25000000000000034694e-03  1.95973133264531577946e-02  2.32665793500896889157e-06 0
5.25000000000000022204e-01  6.25000000000000034694e-03  1.95704185181013526340e-02  2.74982108442942130289e-06 0
5.31250000000000000000e-01  6.25000000000000034694e-03  1.95359789408711959080e-02  3.17192412515460153699e-06 0
5.37499999999999977796e-01  6.25000000000000034694e-03  1.94940078718749930375e-02  3.59280432872186028526e-06 0
5.43749999999999955591e-01  6.25000000000000034694e-03  1.94445214917586366166e-02  4.01229943797556942719e-06 0
5.50000000000000044409e-01  6.25000000000000034694e-03  1.93875388784636309980e-02  4.43024772960043389247e-06 0
5.56250000000000022204e-01  6.25000000000000034694e-03  1.93230819998726800757e-02  4.84648807601642528375e-06 0
5.62500000000000000000e-01  6.25000000000000034694e-03  1.92511757053388694871e-02  5.26086000924783081523e-06 0
5.68749999999999977796e-01  6.25000000000000034694e-03  1.91718477161081438109e-02  5.67320378042773798555e-06 0
5.74999999999999955591e-01  6.25000000000000034694e-03  1.90851286146291564128e-02  6.08336042444770908055e-06 0
5.81250000000000044409e-01  6.25000000000000034694e-03  1.89910518327681722417e-02  6.49117181624608852175e-06 0
5.87500000000000022204e-01  6.25000000000000034694e-03  1.88896536389139765855e-02  6.89648073822629603669e-06 0
5.93750000000000000000e-01  6.25000000000000034694e-03  1.87809731240011976161e-02  7.29913093538633872548e-06 0
5.99999999999999977796e-01  6.25000000000000034694e-03  1.86650521864366279734e-02  7.69896717894499871271e-06 0
6.06249999999999955591e-01  6.25000000000000034694e-03  1.85419355159488208340e-02  8.09583532395546923155e-06 0
6.12500000000000044409e-01  6.25000000000000034694e-03  1.84116705763579142918e-02  8.48958237015251526714e-06 0
6.18750000000000022204e-01  6.25000000000000034694e-03  1.82743075872776536417e-02  8.88005652074225215742e-06 0
6.25000000000000000000e-01  6.25000000000000034694e-03  1.81298995047547081838e-02  9.26710724094212401347e-06 0
6.31249999999999977796e-01  6.25000000000000034694e-03  1.79785020008544106640e-02  9.65058531474799474736e-06 0
6.37499999999999955591e-01  6.25000000000000034694e-03  1.78201734421970653388e-02  1.00303429034914737272e-05 0