Titile = 'Poisson'  
VARIABLES = X, Y, U, Error, Rank 
zone N= 966, E = 1600
DATAPACKING=POINT, ZONETYPE=FETRIANGLE
0.00000000000000000000e+00  8.12500000000000000000e-01  0.00000000000000000000e+00  0.00000000000000000000e+00 26
6.25000000000000034694e-03  8.12500000000000000000e-01  1.08892880362903565761e-02  1.86070590961154996856e-05 26
1.25000000000000006939e-02  8.12500000000000000000e-01  2.17748261303748920359e-02  3.67588591975061274031e-05 26
1.87499999999999993061e-02  8.12500000000000000000e-01  3.26695575291542777974e-02  3.73085733880590408873e-05 26
2.50000000000000013878e-02  8.12500000000000000000e-01  4.35516941916121724798e-02  3.78439044139144975532e-05 26
3.12500000000000000000e-02  8.12500000000000000000e-01  5.44170408469164396115e-02  3.83646458925884781266e-05 26
3.74999999999999986122e-02  8.12500000000000000000e-01  6.52614086970950968425e-02  3.88705970733593808575e-05 26
4.37499999999999972244e-02  8.12500000000000000000e-01  7.60806170319167224259e-02  3.93615628956067720168e-05 26
5.00000000000000027756e-02  8.12500000000000000000e-01  8.68704948406122945403e-02  3.98373540855812002803e-05 26
5.62500000000000013878e-02  8.12500000000000000000e-01  9.76268824198855966756e-02  4.02977872229481892674e-05 26
6.25000000000000000000e-02  8.12500000000000000000e-01  1.08345632977580999534e-01  4.07426847885972165386e-05 26
6.87500000000000055511e-02  8.12500000000000000000e-01  1.19022614231305501331e-01  4.11718752783424291053e-05 26
7.49999999999999972244e-02  8.12500000000000000000e-01  1.29653710001552707753e-01  4.15851932184796435621e-05 26
8.12500000000000027756e-02  8.12500000000000000000e-01  1.40234821798496084311e-01  4.19824793020384667841e-05 26
8.74999999999999944489e-02  8.12500000000000000000e-01  1.50761870402186387574e-01  4.23635802985766751760e-05 26
9.37500000000000000000e-02  8.12500000000000000000e-01  1.61230797434922940026e-01  4.27283493587005125391e-05 26
1.00000000000000005551e-01  8.12500000000000000000e-01  1.71637566926067519635e-01  4.30766458391074191780e-05 26
1.06249999999999997224e-01  8.12500000000000000000e-01  1.81978166867943991214e-01  4.34083354001746357653e-05 26
1.12500000000000002776e-01  8.12500000000000000000e-01  1.92248610762339233737e-01  4.37232902624762331811e-05 26
1.18749999999999994449e-01  8.12500000000000000000e-01  2.02444939157671588426e-01  4.40213889584539774802e-05 26
1.25000000000000000000e-01  8.12500000000000000000e-01  2.12563221175234157156e-01  4.43025165799415532319e-05 26
1.31250000000000005551e-01  8.12500000000000000000e-01  2.22599556024740824478e-01  4.45665647048620883197e-05 26
1.37500000000000011102e-01  8.12500000000000000000e-01  2.32550074507996223927e-01  4.48134315982062769734e-05 26
1.43749999999999988898e-01  8.12500000000000000000e-01  2.42410940510738054376e-01  4.50430220582109797078e-05 26
1.49999999999999994449e-01  8.12500000000000000000e-01  2.52178352481444434385e-01  4.52552475411760468660e-05 26
1.56250000000000000000e-01  8.12500000000000000000e-01  2.61848544896798929305e-01  4.54500263006862859072e-05 26
1.62500000000000005551e-01  8.12500000000000000000e-01  2.71417789713531476536e-01  4.56272832590753907311e-05 26
1.68750000000000011102e-01  8.12500000000000000000e-01  2.80882397805757744180e-01  4.57869499291274628661e-05 26
1.74999999999999988898e-01  8.12500000000000000000e-01  2.90238720386713167088e-01  4.59289649342164985057e-05 26
1.81249999999999994449e-01  8.12500000000000000000e-01  2.99483150416048338194e-01  4.60532734135599142178e-05 26
1.87500000000000000000e-01  8.12500000000000000000e-01  3.08612123990015474462e-01  4.61598274396068930514e-05 26
1.93750000000000005551e-01  8.12500000000000000000e-01  3.17622121715381233731e-01  4.62485860763250933303e-05 26
2.00000000000000011102e-01  8.12500000000000000000e-01  3.26509670066695956159e-01  4.63195149190132049455e-05 26
2.06249999999999988898e-01  8.12500000000000000000e-01  3.35271342724745124997e-01  4.63725867660413904048e-05 26
2.12499999999999994449e-01  8.12500000000000000000e-01  3.43903761898012583220e-01  4.64077810776730714792e-05 26
2.18750000000000000000e-01  8.12500000000000000000e-01  3.52403599624602326124e-01  4.64250842648894490594e-05 26
2.25000000000000005551e-01  8.12500000000000000000e-01  3.60767579055175924285e-01  4.64244897500631914511e-05 26
2.31250000000000011102e-01  8.12500000000000000000e-01  3.68992475716592771562e-01  4.64059976168496035598e-05 26
2.37499999999999988898e-01  8.12500000000000000000e-01  3.77075118754351845674e-01  4.63696152642190106974e-05 26
2.43749999999999994449e-01  8.12500000000000000000e-01  3.85012392156098892659e-01  4.63153563214913077672e-05 26
2.50000000000000000000e-01  8.12500000000000000000e-01  3.92801235951441618521e-01  4.62432421093894596709e-05 26
2.56249999999999977796e-01  8.12500000000000000000e-01  4.00438647393019098164e-01  4.61533002397707114994e-05 26
2.62500000000000011102e-01  8.12500000000000000000e-01  4.07921682113511985257e-01  4.60455652108726631866e-05 26
2.68749999999999988898e-01  8.12500000000000000000e-01  4.15247455260174092029e-01  4.59200789716951440766e-05 26
2.75000000000000022204e-01  8.12500000000000000000e-01  4.22413142608396796618e-01  4.57768895080201687620e-05 26
2.81250000000000000000e-01  8.12500000000000000000e-01  4.29415981649133249309e-01  4.56160521908888227927e-05 26
2.87499999999999977796e-01  8.12500000000000000000e-01  4.36253272654505863670e-01  4.54376291483815641925e-05 26
2.93750000000000011102e-01  8.12500000000000000000e-01  4.42922379718906800150e-01  4.52416889376583419846e-05 26
2.99999999999999988898e-01  8.12500000000000000000e-01  4.49420731774647974621e-01  4.50283070597690127101e-05 26
3.06250000000000022204e-01  8.12500000000000000000e-01  4.55745823582855813516e-01  4.47975662318245149152e-05 26
3.12500000000000000000e-01  8.12500000000000000000e-01  4.61895216700931365850e-01  4.45495547119478807474e-05 26
3.18749999999999977796e-01  8.12500000000000000000e-01  4.67866540419933918393e-01  4.42843689480998392582e-05 26
3.25000000000000011102e-01  8.12500000000000000000e-01  4.73657492681760161624e-01  4.40021103147447689707e-05 26
3.31249999999999988898e-01  8.12500000000000000000e-01  4.79265840963471301261e-01  4.37028882338541535546e-05 26
3.37500000000000022204e-01  8.12500000000000000000e-01  4.84689423140364727960e-01  4.33868177416307787553e-05 26
3.43750000000000000000e-01  8.12500000000000000000e-01  4.89926148317884779804e-01  4.30540210729635219877e-05 26
3.49999999999999977796e-01  8.12500000000000000000e-01  4.94973997639419738270e-01  4.27046258975605219632e-05 26
3.56250000000000011102e-01  8.12500000000000000000e-01  4.99831025062430489569e-01  4.23387674494124510716e-05 26
3.62499999999999988898e-01  8.12500000000000000000e-01  5.04495358110456870726e-01  4.19565867045834650639e-05 26
3.68750000000000022204e-01  8.12500000000000000000e-01  5.08965198594791612408e-01  4.15582305288708653279e-05 26
3.75000000000000000000e-01  8.12500000000000000000e-01  5.13238823306004232627e-01  4.11438533324259836377e-05 26
3.81249999999999977796e-01  8.12500000000000000000e-01  5.17314584681390687848e-01  4.07136138913521961058e-05 26
3.87500000000000011102e-01  8.12500000000000000000e-01  5.21190911436193338169e-01  4.02676792330414201615e-05 26
3.93749999999999988898e-01  8.12500000000000000000e-01  5.24866309173978806690e-01  3.98062199536974858916e-05 26
4.00000000000000022204e-01  8.12500000000000000000e-01  5.28339360957878145797e-01  3.93294150313749923953e-05 26
4.06250000000000000000e-01  8.12500000000000000000e-01  5.31608727860883423233e-01  3.88374477162667375296e-05 26
4.12499999999999977796e-01  8.12500000000000000000e-01  5.34673149479729437061e-01  3.83305077596984844490e-05 26
4.18750000000000011102e-01  8.12500000000000000000e-01  5.37531444421064152905e-01  3.78087910809510319154e-05 26
4.24999999999999988898e-01  8.12500000000000000000e-01  5.40182510758874578904e-01  3.72724977145688640690e-05 26
4.31250000000000022204e-01  8.12500000000000000000e-01  5.42625326455220657884e-01  3.67218358136023326210e-05 26
4.37500000000000000000e-01  8.12500000000000000000e-01  5.44858949759373101251e-01  3.61570164454372289242e-05 26
4.43749999999999977796e-01  8.12500000000000000000e-01  5.46882519566636138286e-01  3.55782577522445464524e-05 26
4.50000000000000011102e-01  8.12500000000000000000e-01  5.48695255751638022446e-01  3.49857835468814215574e-05 26
4.56249999999999988898e-01  8.12500000000000000000e-01  5.50296459471306897981e-01  3.43798210049595098781e-05 26
4.62500000000000022204e-01  8.12500000000000000000e-01  5.51685513429851503986e-01  3.37606050136995960997e-05 26
4.68750000000000000000e-01  8.12500000000000000000e-01  5.52861882121869707696e-01  3.31283729517739544690e-05 26
4.74999999999999977796e-01  8.12500000000000000000e-01  5.53825112033392130684e-01  3.24833700022786331374e-05 26
4.81250000000000011102e-01  8.12500000000000000000e-01  5.54574831822055913655e-01  3.18258437220775292076e-05 26
4.87499999999999988898e-01  8.12500000000000000000e-01  5.55110752456511646891e-01  3.11560476993211210583e-05 26
4.93750000000000022204e-01  8.12500000000000000000e-01  5.55432667328247586802e-01  3.04742410586200662692e-05 26
5.00000000000000000000e-01  8.12500000000000000000e-01  5.55540452333835643728e-01  2.97806857665339208552e-05 26
5.06249999999999977796e-01  8.12500000000000000000e-01  5.55434065920017316920e-01  2.90756492888899487070e-05 26
5.12499999999999955591e-01  8.12500000000000000000e-01  5.55113549100502701172e-01  2.83594037082668393168e-05 26
5.18750000000000044409e-01  8.12500000000000000000e-01  5.54579025440672501723e-01  2.76322251054894607591e-05 26
5.25000000000000022204e-01  8.12500000000000000000e-01  5.53830701009955905789e-01  2.68943934385035277046e-05 26
5.31250000000000000000e-01  8.12500000000000000000e-01  5.52868864300840590076e-01  2.61461939810025967290e-05 26
5.37499999999999977796e-01  8.12500000000000000000e-01  5.51693886120715681898e-01  2.53879141495216842372e-05 26
5.43749999999999955591e-01  8.12500000000000000000e-01  5.50306219445071187479e-01  2.46198472406700119564e-05 26
5.50000000000000044409e-01  8.12500000000000000000e-01  5.48706399246583709228e-01  2.38422886010836165838e-05 26
5.56250000000000022204e-01  8.12500000000000000000e-01  5.46895042286006716203e-01  2.30555383816666292773e-05 26
5.62500000000000000000e-01  8.12500000000000000000e-01  5.44872846875916305720e-01  2.22598999022327603825e-05 26
5.68749999999999977796e-01  8.12500000000000000000e-01  5.42640592611448591143e-01  2.14556795856690740720e-05 26
5.74999999999999955591e-01  8.12500000000000000000e-01  5.40199140068355565525e-01  2.06431882336932659427e-05 26
5.81250000000000044409e-01  8.12500000000000000000e-01  5.37549430474382194944e-01  1.98227377629089929201e-05 26
5.87500000000000022204e-01  8.12500000000000000000e-01  5.34692485341451972936e-01  1.89946460371626102415e-05 26
5.93750000000000000000e-01  8.12500000000000000000e-01  5.31629406077692712174e-01  1.81592309069777968489e-05 26
5.99999999999999977796e-01  8.12500000000000000000e-01  5.28361373557587055139e-01  1.73168153225766729975e-05 26
6.06249999999999955591e-01  8.12500000000000000000e-01  5.24889647670416459313e-01  1.64677235160448631746e-05 26
6.12500000000000044409e-01  8.12500000000000000000e-01  5.21215566832172738643e-01  1.56122832536409461568e-05 26
6.18750000000000022204e-01  8.12500000000000000000e-01  5.17340547470750755643e-01  1.47508245313954233779e-05 26
6.25000000000000000000e-01  8.12500000000000000000e-01  5.13266083480540480366e-01  1.38836787961782448519e-05 26
6.31249999999999977796e-01  8.12500000000000000000e-01  5.08993745645221151719e-01  1.30111800993315540609e-05 26
6.37499999999999955591e-01  8.12500000000000000000e-01  5.04525181030718306019e-01  1.21336664432591945229e-05 26
6.43750000000000044409e-01  8.12500000000000000000e-01  4.99862112355854482093e-01  1.12514740253644163204e-05 26
6.50000000000000022204e-01  8.12500000000000000000e-01  4.95006337320793854406e-01  1.03649445234998971443e-05 26
6.56250000000000000000e-01  8.12500000000000000000e-01  4.89959727920134702206e-01  9.47441882309663085948e-06 26
6.62499999999999977796e-01  8.12500000000000000000e-01  4.84724229717333809919e-01  8.58024077265984175256e-06 26
6.68749999999999955591e-01  8.12500000000000000000e-01  4.79301861096337544765e-01  7.68275536772167200184e-06 26
6.75000000000000044409e-01  8.12500000000000000000e-01  4.73694712485430713400e-01  6.78230664424850360206e-06 26
6.81250000000000022204e-01  8.12500000000000000000e-01  4.67904945544087569331e-01  5.87924479450441239692e-06 26
6.87500000000000000000e-01  8.12500000000000000000e-01  4.61934792340162936330e-01  4.97391548054393339839e-06 26
6.93749999999999977796e-01  8.12500000000000000000e-01  4.55786554480078154317e-01  4.06666900948371434765e-06 26
6.99999999999999955591e-01  8.12500000000000000000e-01  4.49462602227278185119e-01  3.15785442955851536340e-06 26
7.06250000000000044409e-01  8.12500000000000000000e-01  4.42965373585380517429e-01  2.24782246394106266507e-06 26
7.12500000000000022204e-01  8.12500000000000000000e-01  4.36297373359058549003e-01  1.33692459569623167681e-06 26
7.18750000000000000000e-01  8.12500000000000000000e-01  4.29461172191021589573e-01  4.25510302604070744792e-07 26
7.24999999999999977796e-01  8.12500000000000000000e-01  4.22459405565309142894e-01  4.86067404326107066481e-07 26
7.31249999999999955591e-01  8.12500000000000000000e-01  4.15294772796826694439e-01  1.39745768068522124850e-06 26
7.37500000000000044409e-01  8.12500000000000000000e-01  4.07970035988594048604e-01  2.30830987124619468887e-06 26
7.43750000000000022204e-01  8.12500000000000000000e-01  4.00488018964365255492e-01  3.21827110627559420664e-06 26
7.50000000000000000000e-01  8.12500000000000000000e-01  3.92851606186141955046e-01  4.12699259089155390257e-06 26
7.56249999999999977796e-01  8.12500000000000000000e-01  3.85063741635052914081e-01  5.03412263253011360575e-06 26
7.62499999999999955591e-01  8.12500000000000000000e-01  3.77127427681622162670e-01  5.93931200587594076978e-06 26
7.68750000000000044409e-01  8.12500000000000000000e-01  3.69045723925950308608e-01  6.84221174079846505833e-06 26
7.75000000000000022204e-01  8.12500000000000000000e-01  3.60821746018193445504e-01  7.74247326740251651245e-06 26
7.81250000000000000000e-01  8.12500000000000000000e-01  3.52458664459098014454e-01  8.63975023079888160282e-06 26
7.87499999999999977796e-01  8.12500000000000000000e-01  3.43959703375796899127e-01  9.53369670653181344733e-06 26
7.93749999999999955591e-01  8.12500000000000000000e-01  3.35328139278540660051e-01  1.04239670294381525650e-05 26
8.00000000000000044409e-01  8.12500000000000000000e-01  3.26567299800927302034e-01  1.13102193122771588207e-05 26
8.06250000000000022204e-01  8.12500000000000000000e-01  3.17680562412509415182e-01  1.21921110518563580172e-05 26
8.12500000000000000000e-01  8.12500000000000000000e-01  3.08671353120103575396e-01  1.30693026484940411081e-05 26
8.18749999999999977796e-01  8.12500000000000000000e-01  2.99543145145083566927e-01  1.39414556215577967180e-05 26
8.24999999999999955591e-01  8.12500000000000000000e-01  2.90299457585257159042e-01  1.48082336097199451785e-05 26
8.31250000000000044409e-01  8.12500000000000000000e-01  2.80943854059311659555e-01  1.56693036247879113887e-05 26
8.37500000000000022204e-01  8.12500000000000000000e-01  2.71479941328673313183e-01  1.65243318828167673473e-05 26
8.43750000000000000000e-01  8.12500000000000000000e-01  2.61911367913337189695e-01  1.73729902374630817974e-05 26
8.49999999999999977796e-01  8.12500000000000000000e-01  2.52241822679734717383e-01  1.82149507490514395158e-05 26
8.56249999999999955591e-01  8.12500000000000000000e-01  2.42475033421956503998e-01  1.90498891599888420245e-05 26
8.62500000000000044409e-01  8.12500000000000000000e-01  2.32614765423193675664e-01  1.98774835993287268820e-05 26
8.68750000000000022204e-01  8.12500000000000000000e-01  2.22664820003913715984e-01  2.06974144678906402106e-05 26
8.75000000000000000000e-01  8.12500000000000000000e-01  2.12629033058424565805e-01  2.15093666104115843751e-05 26
8.81249999999999977796e-01  8.12500000000000000000e-01  2.02511273572747868554e-01  2.23130261178261513066e-05 26
8.87499999999999955591e-01  8.12500000000000000000e-01  1.92315442136218428537e-01  2.31080836165242775593e-05 26
8.93750000000000044409e-01  8.12500000000000000000e-01  1.82045469436094342619e-01  2.38942327502877915890e-05 26
9.00000000000000022204e-01  8.12500000000000000000e-01  1.71705314741640496790e-01  2.46711697338142244007e-05 26
9.06250000000000000000e-01  8.12500000000000000000e-01  1.61298964380218318171e-01  2.54385959366498770606e-05 26
9.12499999999999977796e-01  8.12500000000000000000e-01  1.50830430197382014956e-01  2.61962148968841734842e-05 26
9.18749999999999955591e-01  8.12500000000000000000e-01  1.40303748012470669293e-01  2.69437346724077375626e-05 26
9.25000000000000044409e-01  8.12500000000000000000e-01  1.29722976062067174574e-01  2.76808672959316659501e-05 26
9.31250000000000022204e-01  8.12500000000000000000e-01  1.19092193434786067230e-01  2.84073282022373474476e-05 26
9.37500000000000000000e-01  8.12500000000000000000e-01  1.08415498500042908891e-01  2.91228376731178517645e-05 26
9.43749999999999977796e-01  8.12500000000000000000e-01  9.76970073268957350798e-02  2.98271197870653148598e-05 26
9.49999999999999955591e-01  8.12500000000000000000e-01  8.69408520974866566577e-02  3.05199027887254059621e-05 26
9.56250000000000044409e-01  8.12500000000000000000e-01  7.61511795147738063116e-02  3.12009199614632359854e-05 26
9.62500000000000022204e-01  8.12500000000000000000e-01  6.53321492026609218495e-02  3.18699084925211373331e-05 26
9.68750000000000000000e-01  8.12500000000000000000e-01  5.44879321034442976046e-02  3.25266106351446149247e-05 26
9.74999999999999977796e-01  8.12500000000000000000e-01  4.36227088691040418289e-02  3.31707730778854625875e-05 26
9.81249999999999955591e-01  8.12500000000000000000e-01  3.27406682501194465362e-02  3.38021475768529588990e-05 26
9.87500000000000044409e-01  8.12500000000000000000e-01  2.18460054803208958418e-02  3.44204907485566591330e-05 26
9.93750000000000022204e-01  8.12500000000000000000e-01  1.09253327448269165617e-02  1.74376494403161164115e-05 26
1.00000000000000000000e+00  8.12500000000000000000e-01  0.00000000000000000000e+00  6.80377307569004957322e-17 26
0.00000000000000000000e+00  8.18749999999999977796e-01  0.00000000000000000000e+00  0.00000000000000000000e+00 26
6.25000000000000034694e-03  8.18749999999999977796e-01  1.05664533023600883122e-02  1.88227234134055038117e-05 26
1.25000000000000006939e-02  8.18749999999999977796e-01  2.11292869134293084810e-02  3.71843127098051007273e-05 26
1.87499999999999993061e-02  8.18749999999999977796e-01  3.17017900391897491930e-02  3.77163097351057574613e-05 26
2.50000000000000013878e-02  8.18749999999999977796e-01  4.22620715214202594123e-02  3.82337664036960789282e-05 26
3.12500000000000000000e-02  8.18749999999999977796e-01  5.28060601705836948905e-02  3.87364832277886650402e-05 26
3.74999999999999986122e-02  8.18749999999999977796e-01  6.33296910783445465842e-02  3.92242663977276917464e-05 26
4.37499999999999972244e-02  8.18749999999999977796e-01  7.38289071846497668705e-02  3.96969278754211174487e-05 26
5.00000000000000027756e-02  8.18749999999999977796e-01  8.42996608418492693326e-02  4.01542854203268406721e-05 26
5.62500000000000013878e-02  8.18749999999999977796e-01  9.47379153750694397162e-02  4.05961627312073636276e-05 26
6.25000000000000000000e-02  8.18749999999999977796e-01  1.05139646638498007736e-01  4.10223894443950687361e-05 26
6.87500000000000055511e-02  8.18749999999999977796e-01  1.15500844566723465112e-01  4.14328012448839100301e-05 26
7.49999999999999972244e-02  8.18749999999999977796e-01  1.25817514720701822961e-01  4.18272399192731736406e-05 26
8.12500000000000027756e-02  8.18749999999999977796e-01  1.36085679827726929725e-01  4.22055533790266501626e-05 26
8.74999999999999944489e-02  8.18749999999999977796e-01  1.46301381314653672350e-01  4.25675958099502871335e-05 26
9.37500000000000000000e-02  8.18749999999999977796e-01  1.56460680834095061664e-01  4.29132276367760745472e-05 26
1.00000000000000005551e-01  8.18749999999999977796e-01  1.66559661782738538394e-01  4.32423155686534332887e-05 26
1.06249999999999997224e-01  8.18749999999999977796e-01  1.76594430811139319060e-01  4.35547327820307028645e-05 26
1.12500000000000002776e-01  8.18749999999999977796e-01  1.86561119324844149059e-01  4.38503588064131921698e-05 26
1.18749999999999994449e-01  8.18749999999999977796e-01  1.96455884975690525662e-01  4.41290796881765867710e-05 26
1.25000000000000000000e-01  8.18749999999999977796e-01  2.06274913143174837282e-01  4.43907879649207970374e-05 26
1.31250000000000005551e-01  8.18749999999999977796e-01  2.16014418405016284108e-01  4.46353827515399981252e-05 26
1.37500000000000011102e-01  8.18749999999999977796e-01  2.25670645996532720501e-01  4.48627697558767746244e-05 26
1.43749999999999988898e-01  8.18749999999999977796e-01  2.35239873258218129548e-01  4.50728612706174924796e-05 26
1.49999999999999994449e-01  8.18749999999999977796e-01  2.44718411070686897579e-01  4.52655764192899656706e-05 26
1.56250000000000000000e-01  8.18749999999999977796e-01  2.54102605277344684165e-01  4.54408407419282234230e-05 26
1.62500000000000005551e-01  8.18749999999999977796e-01  2.63388838092575849892e-01  4.55985867833241798053e-05 26
1.68750000000000011102e-01  8.18749999999999977796e-01  2.72573529496853927956e-01  4.57387537342035521704e-05 26
1.74999999999999988898e-01  8.18749999999999977796e-01  2.81653138616864251453e-01  4.58612874971731088181e-05 26
1.81249999999999994449e-01  8.18749999999999977796e-01  2.90624165090481223483e-01  4.59661408047651320885e-05 26
1.87500000000000000000e-01  8.18749999999999977796e-01  2.99483150416021748352e-01  4.60532734402607779600e-05 26
1.93750000000000005551e-01  8.18749999999999977796e-01  3.08226679286298377303e-01  4.61226515182655560920e-05 26
2.00000000000000011102e-01  8.18749999999999977796e-01  3.16851380904266344274e-01  4.61742485168836758191e-05 26
2.06249999999999988898e-01  8.18749999999999977796e-01  3.25353930283402814627e-01  4.62080444147972002611e-05 26
2.12499999999999994449e-01  8.18749999999999977796e-01  3.33731049528986856156e-01  4.62240262649182831467e-05 26
2.18750000000000000000e-01  8.18749999999999977796e-01  3.41979509102120715625e-01  4.62221878688162668425e-05 26
2.25000000000000005551e-01  8.18749999999999977796e-01  3.50096129064726369062e-01  4.62025298311741217105e-05 26
2.31250000000000011102e-01  8.18749999999999977796e-01  3.58077780304920656462e-01  4.61650601111807112886e-05 26
2.37499999999999988898e-01  8.18749999999999977796e-01  3.65921385744807425855e-01  4.61097925594788904391e-05 26
2.43749999999999994449e-01  8.18749999999999977796e-01  3.73623921524600277611e-01  4.60367490623392328075e-05 26
2.50000000000000000000e-01  8.18749999999999977796e-01  3.81182418170586734263e-01  4.59459573242115837388e-05 26
2.56249999999999977796e-01  8.18749999999999977796e-01  3.88593961738175230902e-01  4.58374525990068448777e-05 26
2.62500000000000011102e-01  8.18749999999999977796e-01  3.95855694936052660005e-01  4.57112769001177809969e-05 26
2.68749999999999988898e-01  8.18749999999999977796e-01  4.02964818228496113317e-01  4.55674782121606725127e-05 26
2.75000000000000022204e-01  8.18749999999999977796e-01  4.09918590912326408215e-01  4.54061127941884912218e-05 26
2.81250000000000000000e-01  8.18749999999999977796e-01  4.16714332176470192426e-01  4.52272421879174046921e-05 26
2.87499999999999977796e-01  8.18749999999999977796e-01  4.23349422132941299868e-01  4.50309357175049385091e-05 26
2.93750000000000011102e-01  8.18749999999999977796e-01  4.29821302828424400833e-01  4.48172688953252240651e-05 26
2.99999999999999988898e-01  8.18749999999999977796e-01  4.36127479229404091399e-01  4.45863244032951300255e-05 26
3.06250000000000022204e-01  8.18749999999999977796e-01  4.42265520185389060526e-01  4.43381907201945146824e-05 26
3.12500000000000000000e-01  8.18749999999999977796e-01  4.48233059364215979947e-01  4.40729640379666776084e-05 26
3.18749999999999977796e-01  8.18749999999999977796e-01  4.54027796166432962011e-01  4.37907461077746695821e-05 26
3.25000000000000011102e-01  8.18749999999999977796e-01  4.59647496610048167387e-01  4.34916463768475480833e-05 26
3.31249999999999988898e-01  8.18749999999999977796e-01  4.65089994194128164562e-01  4.31757795901765994984e-05 26
3.37500000000000022204e-01  8.18749999999999977796e-01  4.70353190731980730366e-01  4.28432677914147852505e-05 26
3.43750000000000000000e-01  8.18749999999999977796e-01  4.75435057161505025825e-01  4.24942388160820527787e-05 26
3.49999999999999977796e-01  8.18749999999999977796e-01  4.80333634325647462759e-01  4.21288280288423244713e-05 26
3.56250000000000011102e-01  8.18749999999999977796e-01  4.85047033730690357878e-01  4.17471752747200497424e-05 26
3.62499999999999988898e-01  8.18749999999999977796e-01  4.89573438270647587345e-01  4.13494284798310296480e-05 26
3.68750000000000022204e-01  8.18749999999999977796e-01  4.93911102930837786484e-01  4.09357405504184868050e-05 26
3.75000000000000000000e-01  8.18749999999999977796e-01  4.98058355458672052940e-01  4.05062712621195863960e-05 26
3.81249999999999977796e-01  8.18749999999999977796e-01  5.02013597009511758351e-01  4.00611860261745889034e-05 26
3.87500000000000011102e-01  8.18749999999999977796e-01  5.05775302762791700850e-01  3.96006560874351265511e-05 26
3.93749999999999988898e-01  8.18749999999999977796e-01  5.09342022508270209080e-01  3.91248600550841985068e-05 26
4.00000000000000022204e-01  8.18749999999999977796e-01  5.12712381208990874981e-01  3.86339799567370079103e-05 26
4.06250000000000000000e-01  8.18749999999999977796e-01  5.15885079526591905363e-01  3.81282059608301082676e-05 26
4.12499999999999977796e-01  8.18749999999999977796e-01  5.18858894325560426886e-01  3.76077329693469408767e-05 26
4.18750000000000011102e-01  8.18749999999999977796e-01  5.21632679144203970090e-01  3.70727611126442369027e-05 26
4.24999999999999988898e-01  8.18749999999999977796e-01  5.24205364634743875563e-01  3.65234975624462165911e-05 26
4.31250000000000022204e-01  8.18749999999999977796e-01  5.26575958979222824574e-01  3.59601527976094459405e-05 26
4.37500000000000000000e-01  8.18749999999999977796e-01  5.28743548267135099472e-01  3.53829452578446890243e-05 26
4.43749999999999977796e-01  8.18749999999999977796e-01  5.30707296852318433089e-01  3.47920966974335499344e-05 26
4.50000000000000011102e-01  8.18749999999999977796e-01  5.32466447671845699574e-01  3.41878353657953937272e-05 26
4.56249999999999988898e-01  8.18749999999999977796e-01  5.34020322540232239561e-01  3.35703935737674541429e-05 26
4.62500000000000022204e-01  8.18749999999999977796e-01  5.35368322408377173005e-01  3.29400101167776071520e-05 26
4.68750000000000000000e-01  8.18749999999999977796e-01  5.36509927597198288396e-01  3.22969274921813820356e-05 26
4.74999999999999977796e-01  8.18749999999999977796e-01  5.37444697996158682329e-01  3.16413936259918315841e-05 26
4.81250000000000011102e-01  8.18749999999999977796e-01  5.38172273233053610753e-01  3.09736616606048897893e-05 26
4.87499999999999988898e-01  8.18749999999999977796e-01  5.38692372813921238617e-01  3.02939888773279264456e-05 26
4.93750000000000022204e-01  8.18749999999999977796e-01  5.39004796230995175677e-01  2.96026367805346524165e-05 26
5.00000000000000000000e-01  8.18749999999999977796e-01  5.39109423038484636415e-01  2.88998725157529889884e-05 26
5.06249999999999977796e-01  8.18749999999999977796e-01  5.39006212901028125550e-01  2.81859667475847786022e-05 26
5.12499999999999955591e-01  8.18749999999999977796e-01  5.38695205608001992381e-01  2.74611947965741620692e-05 26
5.18750000000000044409e-01  8.18749999999999977796e-01  5.38176521058643997364e-01  2.67258360702182784507e-05 26
5.25000000000000022204e-01  8.18749999999999977796e-01  5.37450359215843165295e-01  2.59801739415088661644e-05 26
5.31250000000000000000e-01  8.18749999999999977796e-01  5.36517000028568613601e-01  2.52244961219671992581e-05 26
5.37499999999999977796e-01  8.18749999999999977796e-01  5.35376803324695060837e-01  2.44590937988897749733e-05 26
5.43749999999999955591e-01  8.18749999999999977796e-01  5.34030208672391482061e-01  2.36842614145249541480e-05 26
5.50000000000000044409e-01  8.18749999999999977796e-01  5.32477735207921409888e-01  2.29002992900850799174e-05 26
5.56250000000000022204e-01  8.18749999999999977796e-01  5.30719981441035715264e-01  2.21075079801513751931e-05 26
5.62500000000000000000e-01  8.18749999999999977796e-01  5.28757625018529631156e-01  2.13061938633130054654e-05 26
5.68749999999999977796e-01  8.18749999999999977796e-01  5.26591422465972236466e-01  2.04966660481975537778e-05 26
5.74999999999999955591e-01  8.18749999999999977796e-01  5.24222208896242047871e-01  1.96792360642739083687e-05 26
5.81250000000000044409e-01  8.18749999999999977796e-01  5.21650897685489334243e-01  1.88542198272800831660e-05 26
5.87500000000000022204e-01  8.18749999999999977796e-01  5.18878480124245644589e-01  1.80219342841292373691e-05 26
5.93750000000000000000e-01  8.18749999999999977796e-01  5.15906025031170112349e-01  1.71827013826231222993e-05 26
5.99999999999999977796e-01  8.18749999999999977796e-01  5.12734678344700656183e-01  1.63368442469558061703e-05 26
6.06249999999999955591e-01  8.18749999999999977796e-01  5.09365662679237107824e-01  1.54846890881854548638e-05 26
6.12500000000000044409e-01  8.18749999999999977796e-01  5.05800276855109420815e-01  1.46265637696041395088e-05 26
6.18750000000000022204e-01  8.18749999999999977796e-01  5.02039895395629431896e-01  1.37627999086120667016e-05 26
6.25000000000000000000e-01  8.18749999999999977796e-01  4.98085967999791323635e-01  1.28937301428488915178e-05 26