Titile = 'Poisson'  
VARIABLES = X, Y, U, Error, Rank 
zone N= 966, E = 1600
DATAPACKING=POINT, ZONETYPE=FETRIANGLE
0.00000000000000000000e+00  9.37500000000000000000e-02  0.00000000000000000000e+00  0.00000000000000000000e+00 3
6.25000000000000034694e-03  9.37500000000000000000e-02  5.71979654177892822553e-03  2.04364625320712159362e-05 3
1.25000000000000006939e-02  9.37500000000000000000e-02  1.14368722903150678294e-02  4.03493436241814801280e-05 3
1.87499999999999993061e-02  9.37500000000000000000e-02  1.71292969344407075560e-02  4.00046968444776884777e-05 3
2.50000000000000013878e-02  9.37500000000000000000e-02  2.28151179085270897073e-02  3.96446274926569308672e-05 3
3.12500000000000000000e-02  9.37500000000000000000e-02  2.84921432203541595551e-02  3.92692743823169765349e-05 3
3.74999999999999986122e-02  9.37500000000000000000e-02  3.41581842685971664997e-02  3.88787822193023546724e-05 3
4.37499999999999972244e-02  9.37500000000000000000e-02  3.98110566865735038267e-02  3.84733015452998206030e-05 3
5.00000000000000027756e-02  9.37500000000000000000e-02  4.54485811843592171777e-02  3.80529886813280038282e-05 3
5.62500000000000013878e-02  9.37500000000000000000e-02  5.10685843889452859012e-02  3.76180056660749273512e-05 3
6.25000000000000000000e-02  9.37500000000000000000e-02  5.66688996821139365223e-02  3.71685201930177511187e-05 3
6.87500000000000055511e-02  9.37500000000000000000e-02  6.22473680357139708130e-02  3.67047055485417161869e-05 3
7.49999999999999972244e-02  9.37500000000000000000e-02  6.78018388440031344322e-02  3.62267405411148546435e-05 3
8.12500000000000027756e-02  9.37500000000000000000e-02  7.33301707527509727402e-02  3.57348094356252365955e-05 3
8.74999999999999944489e-02  9.37500000000000000000e-02  7.88302324847695995436e-02  3.52291018804601341330e-05 3
9.37500000000000000000e-02  9.37500000000000000000e-02  8.42999036615638130954e-02  3.47098128364586866468e-05 3
1.00000000000000005551e-01  9.37500000000000000000e-02  8.97370756207734737719e-02  3.41771424978709603693e-05 3
1.06249999999999997224e-01  9.37500000000000000000e-02  9.51396522291100554813e-02  3.36312962223167533082e-05 3
1.12500000000000002776e-01  9.37500000000000000000e-02  1.00505550690443756778e-01  3.30724844394003625325e-05 3
1.18749999999999994449e-01  9.37500000000000000000e-02  1.05832702348777715762e-01  3.25009225862066264412e-05 3
1.25000000000000000000e-01  9.37500000000000000000e-02  1.11119053485737070974e-01  3.19168310071171745790e-05 3
1.31250000000000005551e-01  9.37500000000000000000e-02  1.16362566112330048651e-01  3.13204348823814537894e-05 3
1.37500000000000011102e-01  9.37500000000000000000e-02  1.21561218754626013117e-01  3.07119641357739281418e-05 3
1.43749999999999988898e-01  9.37500000000000000000e-02  1.26713007233066304869e-01  3.00916533402528774133e-05 3
1.49999999999999994449e-01  9.37500000000000000000e-02  1.31815945435126757879e-01  2.94597416403696854559e-05 3
1.56250000000000000000e-01  9.37500000000000000000e-02  1.36868066080990558042e-01  2.88164726491013656329e-05 3
1.62500000000000005551e-01  9.37500000000000000000e-02  1.41867421481975924946e-01  2.81620943576865734315e-05 3
1.68750000000000011102e-01  9.37500000000000000000e-02  1.46812084291412209280e-01  2.74968590448232408363e-05 3
1.74999999999999988898e-01  9.37500000000000000000e-02  1.51700148247661981138e-01  2.68210231729737458295e-05 3
1.81249999999999994449e-01  9.37500000000000000000e-02  1.56529728909006349280e-01  2.61348472745670523665e-05 3
1.87500000000000000000e-01  9.37500000000000000000e-02  1.61298964380185705370e-01  2.54385959040648312879e-05 3
1.93750000000000005551e-01  9.37500000000000000000e-02  1.66006016030131958727e-01  2.47325374722051627430e-05 3
2.00000000000000011102e-01  9.37500000000000000000e-02  1.70649069200821124070e-01  2.40169441678428352560e-05 3
2.06249999999999988898e-01  9.37500000000000000000e-02  1.75226333906887132841e-01  2.32920918816492683590e-05 3
2.12499999999999994449e-01  9.37500000000000000000e-02  1.79736045525645954379e-01  2.25582600503482222365e-05 3
2.18750000000000000000e-01  9.37500000000000000000e-02  1.84176465477419282202e-01  2.18157315770295401336e-05 3
2.25000000000000005551e-01  9.37500000000000000000e-02  1.88545881895794298355e-01  2.10647927264828727090e-05 3
2.31250000000000011102e-01  9.37500000000000000000e-02  1.92842610287559723670e-01  2.03057329935252273145e-05 3
2.37499999999999988898e-01  9.37500000000000000000e-02  1.97064994182138908396e-01  1.95388450205113972658e-05 3
2.43749999999999994449e-01  9.37500000000000000000e-02  2.01211405770150120187e-01  1.87644244436790952335e-05 3
2.50000000000000000000e-01  9.37500000000000000000e-02  2.05280246531005711175e-01  1.79827698270629277033e-05 3
2.56249999999999977796e-01  9.37500000000000000000e-02  2.09269947849136217499e-01  1.71941825111154855676e-05 3
2.62500000000000011102e-01  9.37500000000000000000e-02  2.13178971618733448246e-01  1.63989665085961799917e-05 3
2.68749999999999988898e-01  9.37500000000000000000e-02  2.17005810836730345104e-01  1.55974283983228989570e-05 3
2.75000000000000022204e-01  9.37500000000000000000e-02  2.20748990183744192572e-01  1.47898771714061183502e-05 3
2.81250000000000000000e-01  9.37500000000000000000e-02  2.24407066592906240254e-01  1.39766241785133082942e-05 3
2.87499999999999977796e-01  9.37500000000000000000e-02  2.27978629806105115296e-01  1.31579829232009171136e-05 3
2.93750000000000011102e-01  9.37500000000000000000e-02  2.31462302917742251962e-01  1.23342690150629596957e-05 3
2.99999999999999988898e-01  9.37500000000000000000e-02  2.34856742905518917075e-01  1.15058000121348591449e-05 3
3.06250000000000022204e-01  9.37500000000000000000e-02  2.38160641148203872097e-01  1.06728953051249408901e-05 3
3.12500000000000000000e-01  9.37500000000000000000e-02  2.41372723930129484682e-01  9.83587599220903108233e-06 3
3.18749999999999977796e-01  9.37500000000000000000e-02  2.44491752932247063956e-01  8.99506476878531024965e-06 3
3.25000000000000011102e-01  9.37500000000000000000e-02  2.47516525709475382344e-01  8.15078575602812271939e-06 3
3.31249999999999988898e-01  9.37500000000000000000e-02  2.50445876154387403467e-01  7.30336449739077409049e-06 3
3.37500000000000022204e-01  9.37500000000000000000e-02  2.53278674946536275225e-01  6.45312760227945148017e-06 3
3.43750000000000000000e-01  9.37500000000000000000e-02  2.56013829988168795104e-01  5.60040295921604425189e-06 3
3.49999999999999977796e-01  9.37500000000000000000e-02  2.58650286824846420419e-01  4.74551920581767205931e-06 3
3.56250000000000011102e-01  9.37500000000000000000e-02  2.61187029052352970293e-01  3.88880599755392353245e-06 3
3.62499999999999988898e-01  9.37500000000000000000e-02  2.63623078708232039258e-01  3.03059357525947703493e-06 3
3.68750000000000022204e-01  9.37500000000000000000e-02  2.65957496648941471573e-01  2.17121276846476973788e-06 3
3.75000000000000000000e-01  9.37500000000000000000e-02  2.68189382912005946924e-01  1.31099496353259681314e-06 3
3.81249999999999977796e-01  9.37500000000000000000e-02  2.70317877062704936542e-01  4.50271710472627262334e-07 3
3.87500000000000011102e-01  9.37500000000000000000e-02  2.72342158526086230985e-01  4.10625104918516115049e-07 3
3.93749999999999988898e-01  9.37500000000000000000e-02  2.74261446903072025894e-01  1.27136363015090125828e-06 3
4.00000000000000022204e-01  9.37500000000000000000e-02  2.76075002271472635940e-01  2.13161201928491195190e-06 3
4.06250000000000000000e-01  9.37500000000000000000e-02  2.77782125471165819430e-01  2.99103863526939406370e-06 3
4.12499999999999977796e-01  9.37500000000000000000e-02  2.79382158373688904707e-01  3.84931212532579891672e-06 3
4.18750000000000011102e-01  9.37500000000000000000e-02  2.80874484135824609154e-01  4.70610168407104012545e-06 3
4.24999999999999988898e-01  9.37500000000000000000e-02  2.82258527437712680719e-01  5.56107687410545281637e-06 3
4.31250000000000022204e-01  9.37500000000000000000e-02  2.83533754704157814341e-01  6.41390824213106114371e-06 3
4.37500000000000000000e-01  9.37500000000000000000e-02  2.84699674310906147845e-01  7.26426687291947814629e-06 3
4.43749999999999977796e-01  9.37500000000000000000e-02  2.85755836773673388418e-01  8.11182501875284955872e-06 3
4.50000000000000011102e-01  9.37500000000000000000e-02  2.86701834921774922904e-01  8.95625588009929529676e-06 3
4.56249999999999988898e-01  9.37500000000000000000e-02  2.87537304054872100423e-01  9.79723395733156365850e-06 3
4.62500000000000022204e-01  9.37500000000000000000e-02  2.88261922083752675228e-01  1.06344349950493466395e-05 3
4.68750000000000000000e-01  9.37500000000000000000e-02  2.88875409654344050825e-01  1.14675362649085954558e-05 3
4.74999999999999977796e-01  9.37500000000000000000e-02  2.89377530255530146519e-01  1.22962165700069014918e-05 3
4.81250000000000011102e-01  9.37500000000000000000e-02  2.89768090310214943006e-01  1.31201564842475804085e-05 3
4.87499999999999988898e-01  9.37500000000000000000e-02  2.90046939250154123258e-01  1.39390382715709471029e-05 3
4.93750000000000022204e-01  9.37500000000000000000e-02  2.90213969573657082357e-01  1.47525463536912759821e-05 3
5.00000000000000000000e-01  9.37500000000000000000e-02  2.90269116887444056374e-01  1.55603670182746789408e-05 3
5.06249999999999977796e-01  9.37500000000000000000e-02  2.90212359931149133097e-01  1.63621888616405364303e-05 3
5.12499999999999955591e-01  9.37500000000000000000e-02  2.90043720585653697075e-01  1.71577027719971297870e-05 3
5.18750000000000044409e-01  9.37500000000000000000e-02  2.89763263864635467471e-01  1.79466020637231160606e-05 3
5.25000000000000022204e-01  9.37500000000000000000e-02  2.89371097889479567122e-01  1.87285826205862981908e-05 3
5.31250000000000000000e-01  9.37500000000000000000e-02  2.88867373847695785294e-01  1.95033429132296376451e-05 3
5.37499999999999977796e-01  9.37500000000000000000e-02  2.88252285934434526737e-01  2.02705843131978369343e-05 3
5.43749999999999955591e-01  9.37500000000000000000e-02  2.87526071277807604432e-01  2.10300110218275548846e-05 3
5.50000000000000044409e-01  9.37500000000000000000e-02  2.86689009847399145503e-01  2.17813302558766963557e-05 3
5.56250000000000022204e-01  9.37500000000000000000e-02  2.85741424346314776272e-01  2.25242523773649949703e-05 3
5.62500000000000000000e-01  9.37500000000000000000e-02  2.84683680086802448628e-01  2.32584909766186953561e-05 3
5.68749999999999977796e-01  9.37500000000000000000e-02  2.83516184849445851412e-01  2.39837629540939900608e-05 3
5.74999999999999955591e-01  9.37500000000000000000e-02  2.82239388725806950031e-01  2.46997887798361404066e-05 3
5.81250000000000044409e-01  9.37500000000000000000e-02  2.80853783945187618354e-01  2.54062923210618407666e-05 3
5.87500000000000022204e-01  9.37500000000000000000e-02  2.79359904684515825135e-01  2.61030012984053705338e-05 3
5.93750000000000000000e-01  9.37500000000000000000e-02  2.77758326862776461219e-01  2.67896470246276052762e-05 3
5.99999999999999977796e-01  9.37500000000000000000e-02  2.76049667918624841434e-01  2.74659648671349287952e-05 3
6.06249999999999955591e-01  9.37500000000000000000e-02  2.74234586572653094017e-01  2.81316940491382894152e-05 3
6.12500000000000044409e-01  9.37500000000000000000e-02  2.72313782573277152199e-01  2.87865779139973021472e-05 3
6.18750000000000022204e-01  9.37500000000000000000e-02  2.70287996426975762887e-01  2.94303640187010273621e-05 3
6.25000000000000000000e-01  9.37500000000000000000e-02  2.68158009112882178560e-01  3.00628041602357676254e-05 3
6.31249999999999977796e-01  9.37500000000000000000e-02  2.65924641781656256878e-01  3.06836545167499252784e-05 3
6.37499999999999955591e-01  9.37500000000000000000e-02  2.63588755438937061282e-01  3.12926757197740101901e-05 3
6.43750000000000044409e-01  9.37500000000000000000e-02  2.61151250613335883521e-01  3.18896330194773369726e-05 3
6.50000000000000022204e-01  9.37500000000000000000e-02  2.58613067009363872817e-01  3.24742962767854415063e-05 3
6.56250000000000000000e-01  9.37500000000000000000e-02  2.55975183145175699817e-01  3.30464400338792430034e-05 3
6.62499999999999977796e-01  9.37500000000000000000e-02  2.53238615975121650337e-01  3.36058438124009484227e-05 3
6.68749999999999955591e-01  9.37500000000000000000e-02  2.50404420498068602807e-01  3.41522918214653969926e-05 3
6.75000000000000044409e-01  9.37500000000000000000e-02  2.47473689350171860424e-01  3.46855735475493087705e-05 3
6.81250000000000022204e-01  9.37500000000000000000e-02  2.44447552384206123754e-01  3.52054832721826471698e-05 3
6.87500000000000000000e-01  9.37500000000000000000e-02  2.41327176233463142063e-01  3.57118206741890986677e-05 3
6.93749999999999977796e-01  9.37500000000000000000e-02  2.38113763862496524704e-01  3.62043904022224527495e-05 3
6.99999999999999955591e-01  9.37500000000000000000e-02  2.34808554102797023555e-01  3.66830027097586608420e-05 3
7.06250000000000044409e-01  9.37500000000000000000e-02  2.31412821175709715327e-01  3.71474730174736755828e-05 3
7.12500000000000022204e-01  9.37500000000000000000e-02  2.27927874200929442283e-01  3.75976222524720959939e-05 3
7.18750000000000000000e-01  9.37500000000000000000e-02  2.24355056691840804017e-01  3.80332768869506843146e-05 3
7.24999999999999977796e-01  9.37500000000000000000e-02  2.20695746037583656607e-01  3.84542689891298472560e-05 3
7.31249999999999955591e-01  9.37500000000000000000e-02  2.16951352972136635167e-01  3.88604361954980603855e-05 3
7.37500000000000044409e-01  9.37500000000000000000e-02  2.13123321030200429949e-01  3.92516220243943614321e-05 3
7.43750000000000022204e-01  9.37500000000000000000e-02  2.09213125991056014819e-01  3.96276755691704618556e-05 3
7.50000000000000000000e-01  9.37500000000000000000e-02  2.05222275309291213308e-01  3.99884518874626948559e-05 3
7.56249999999999977796e-01  9.37500000000000000000e-02  2.01152307533794039163e-01  4.03338119124019289785e-05 3
7.62499999999999955591e-01  9.37500000000000000000e-02  1.97004791714654459156e-01  4.06636224640211096926e-05 3
7.68750000000000044409e-01  9.37500000000000000000e-02  1.92781326798098617825e-01  4.09777564675251060322e-05 3
7.75000000000000022204e-01  9.37500000000000000000e-02  1.88483541010386557168e-01  4.12760926812860695634e-05 3
7.81250000000000000000e-01  9.37500000000000000000e-02  1.84113091229599373788e-01  4.15585162428788734701e-05 3
7.87499999999999977796e-01  9.37500000000000000000e-02  1.79671662347414606842e-01  4.18249181810825820804e-05 3
7.93749999999999955591e-01  9.37500000000000000000e-02  1.75160966619191615923e-01  4.20751958138954051947e-05 3
8.00000000000000044409e-01  9.37500000000000000000e-02  1.70582743003985043417e-01  4.23092526682655734049e-05 3
8.06250000000000022204e-01  9.37500000000000000000e-02  1.65938756494163730526e-01  4.25269984960230384985e-05 3
8.12500000000000000000e-01  9.37500000000000000000e-02  1.61230797434922940026e-01  4.27283493587005125391e-05 3
8.18749999999999977796e-01  9.37500000000000000000e-02  1.56460680834095006153e-01  4.29132276368315856985e-05 3
8.24999999999999955591e-01  9.37500000000000000000e-02  1.51630245662462997958e-01  4.30815620260371900940e-05 3
8.31250000000000044409e-01  9.37500000000000000000e-02  1.46741354144700852924e-01  4.32332876665331156119e-05 3
8.37500000000000022204e-01  9.37500000000000000000e-02  1.41795891041564814383e-01  4.33683460534239895168e-05 3
8.43750000000000000000e-01  9.37500000000000000000e-02  1.36795762923222263829e-01  4.34866851192483583333e-05 3
8.49999999999999977796e-01  9.37500000000000000000e-02  1.31742897434251271527e-01  4.35882592351444220213e-05 3
8.56249999999999955591e-01  9.37500000000000000000e-02  1.26639242550488639871e-01  4.36730292375508977187e-05 3
8.62500000000000044409e-01  9.37500000000000000000e-02  1.21486765828011655799e-01  4.37409624785278783321e-05 3
8.68750000000000022204e-01  9.37500000000000000000e-02  1.16287453644728949742e-01  4.37920327187868441143e-05 3
8.75000000000000000000e-01  9.37500000000000000000e-02  1.11043310434396969022e-01  4.38262203330125332812e-05 3
8.81249999999999977796e-01  9.37500000000000000000e-02  1.05756357914120649455e-01  4.38435120708596803851e-05 3
8.87499999999999955591e-01  9.37500000000000000000e-02  1.00428634304695826862e-01  4.38439013086266982100e-05 3
8.93750000000000044409e-01  9.37500000000000000000e-02  9.50621935449867810908e-02  4.38273879009021261055e-05 3
9.00000000000000022204e-01  9.37500000000000000000e-02  8.96591045000844216739e-02  4.37939781912227710237e-05 3
9.06250000000000000000e-01  9.37500000000000000000e-02  8.42214501636607687507e-02  4.37436850666134136034e-05 3
9.12499999999999977796e-01  9.37500000000000000000e-02  7.87513268549646233696e-02  4.36765279246131843394e-05 3
9.18749999999999955591e-01  9.37500000000000000000e-02  7.32508434106731443070e-02  4.35925326422725856190e-05 3
9.25000000000000044409e-01  9.37500000000000000000e-02  6.77221203718336717259e-02  4.34917316283894850315e-05 3
9.31250000000000022204e-01  9.37500000000000000000e-02  6.21672891664718854643e-02  4.33741636935366936534e-05 3
9.37500000000000000000e-01  9.37500000000000000000e-02  5.65884912877051005076e-02  4.32398742159223470338e-05 3
9.43749999999999977796e-01  9.37500000000000000000e-02  5.09878774683429833448e-02  4.30889149362900791829e-05 3
9.49999999999999955591e-01  9.37500000000000000000e-02  4.53676068516202374292e-02  4.29213440576864391218e-05 3
9.56250000000000044409e-01  9.37500000000000000000e-02  3.97298461588392118338e-02  4.27372261889991111872e-05 3
9.62500000000000022204e-01  9.37500000000000000000e-02  3.40767688540757063276e-02  4.25366323021300618556e-05 3
9.68750000000000000000e-01  9.37500000000000000000e-02  2.84105543062356351303e-02  4.23196397362733678360e-05 3
9.74999999999999977796e-01  9.37500000000000000000e-02  2.27333869488910433887e-02  4.20863321434275516886e-05 3
9.81249999999999955591e-01  9.37500000000000000000e-02  1.70474554381296015959e-02  4.18367994667635800798e-05 3
9.87500000000000044409e-01  9.37500000000000000000e-02  1.13549518087821595808e-02  4.15711379086955434836e-05 3
9.93750000000000022204e-01  9.37500000000000000000e-02  5.67831260179409765682e-03  2.10474774528261396322e-05 3
1.00000000000000000000e+00  9.37500000000000000000e-02  0.00000000000000000000e+00  3.55496200841199794504e-17 3
0.00000000000000000000e+00  1.00000000000000005551e-01  0.00000000000000000000e+00  0.00000000000000000000e+00 3
6.25000000000000034694e-03  1.00000000000000005551e-01  6.08743384698283256096e-03  2.02892143174098968372e-05 3
1.25000000000000006939e-02  1.00000000000000005551e-01  1.21720083403806678818e-02  4.00580747990913338397e-05 3
1.87499999999999993061e-02  1.00000000000000005551e-01  1.82317727797127494827e-02  3.96939789846367796500e-05 3
2.50000000000000013878e-02  1.00000000000000005551e-01  2.42845085235806890100e-02  3.93145803857693210137e-05 3
3.12500000000000000000e-02  1.00000000000000005551e-01  3.03278821271358162148e-02  3.89200252675567237581e-05 3
3.74999999999999986122e-02  1.00000000000000005551e-01  3.63595637548134800743e-02  3.85104657389112592369e-05 3
4.37499999999999972244e-02  1.00000000000000005551e-01  4.23772280785276803106e-02  3.80860596925977623606e-05 3
5.00000000000000027756e-02  1.00000000000000005551e-01  4.83785551741303526674e-02  3.76469707454238355915e-05 3
5.62500000000000013878e-02  1.00000000000000005551e-01  5.43612314157852008489e-02  3.71933681740932442494e-05 3
6.25000000000000000000e-02  1.00000000000000005551e-01  6.03229503679160866669e-02  3.67254268515068704737e-05 3
6.87500000000000055511e-02  1.00000000000000005551e-01  6.62614136743798487483e-02  3.62433271773182630326e-05 3
7.49999999999999972244e-02  1.00000000000000005551e-01  7.21743319445295461456e-02  3.57472550116810783294e-05 3
8.12500000000000027756e-02  1.00000000000000005551e-01  7.80594256358120297534e-02  3.52374015973738741181e-05 3
8.74999999999999944489e-02  1.00000000000000005551e-01  8.39144259325848157482e-02  3.47139634959692244820e-05 3
9.37500000000000000000e-02  1.00000000000000005551e-01  8.97370756207734737719e-02  3.41771424978709603693e-05 3
1.00000000000000005551e-01  1.00000000000000005551e-01  9.55251299580914259302e-02  3.36271455651515616125e-05 3
1.06249999999999997224e-01  1.00000000000000005551e-01  1.01276357539400993502e-01  3.30641847221535556400e-05 3
1.12500000000000002776e-01  1.00000000000000005551e-01  1.06988541156998726023e-01  3.24884770097344510731e-05 3
1.18749999999999994449e-01  1.00000000000000005551e-01  1.12659478655359787669e-01  3.19002443703308991019e-05 3
1.25000000000000000000e-01  1.00000000000000005551e-01  1.18286983780129584254e-01  3.12997135810677562517e-05 3
1.31250000000000005551e-01  1.00000000000000005551e-01  1.23868887020954221434e-01  3.06871161541710790743e-05 3
1.37500000000000011102e-01  1.00000000000000005551e-01  1.29403036447880481763e-01  3.00626882601129352679e-05 3
1.43749999999999988898e-01  1.00000000000000005551e-01  1.34887298540957462079e-01  2.94266706282741985490e-05 3
1.49999999999999994449e-01  1.00000000000000005551e-01  1.40319559012748396043e-01  2.87793084533249921009e-05 3
1.56250000000000000000e-01  1.00000000000000005551e-01  1.45697723623438024632e-01  2.81208513101538493117e-05 3
1.62500000000000005551e-01  1.00000000000000005551e-01  1.51019718988187195974e-01  2.74515530428731668877e-05 3
1.68750000000000011102e-01  1.00000000000000005551e-01  1.56283493376471210867e-01  2.67716716758903405804e-05 3
1.74999999999999988898e-01  1.00000000000000005551e-01  1.61487017503066820900e-01  2.60814693203714753622e-05 3
1.81249999999999994449e-01  1.00000000000000005551e-01  1.66628285310375878758e-01  2.53812120687701980870e-05 3
1.87500000000000000000e-01  1.00000000000000005551e-01  1.71705314741778664045e-01  2.46711698720369909665e-05 3
1.93750000000000005551e-01  1.00000000000000005551e-01  1.76716148505784736988e-01  2.39516164660391606134e-05 3
2.00000000000000011102e-01  1.00000000000000005551e-01  1.81658854830601984576e-01  2.32228292617875364812e-05 3
2.06249999999999988898e-01  1.00000000000000005551e-01  1.86531528208844832317e-01  2.24850892119599077290e-05 3
2.12499999999999994449e-01  1.00000000000000005551e-01  1.91332290132167986973e-01  2.17386807270514292867e-05 3
2.18750000000000000000e-01  1.00000000000000005551e-01  1.96059289815479681485e-01  2.09838915780358181706e-05 3
2.25000000000000005551e-01  1.00000000000000005551e-01  2.00710704910401188661e-01  2.02210127322743904443e-05 3
2.31250000000000011102e-01  1.00000000000000005551e-01  2.05284742207875986475e-01  1.94503383003363783388e-05 3
2.37499999999999988898e-01  1.00000000000000005551e-01  2.09779638329455953016e-01  1.86721653928079156515e-05 3
2.43749999999999994449e-01  1.00000000000000005551e-01  2.14193660407125952005e-01  1.78867940140714498654e-05 3
2.50000000000000000000e-01  1.00000000000000005551e-01  2.18525106751348729972e-01  1.70945269382383191470e-05 3
2.56249999999999977796e-01  1.00000000000000005551e-01  2.22772307507098477064e-01  1.62956695920479788242e-05 3
2.62500000000000011102e-01  1.00000000000000005551e-01  2.26933625297639079976e-01  1.54905299545871066869e-05 3
2.68749999999999988898e-01  1.00000000000000005551e-01  2.31007455855745613693e-01  1.46794184202325705968e-05 3
2.75000000000000022204e-01  1.00000000000000005551e-01  2.34992228642199069144e-01  1.38626476978431778520e-05 3
2.81250000000000000000e-01  1.00000000000000005551e-01  2.38886407451220611486e-01  1.30405326521643161186e-05 3
2.87499999999999977796e-01  1.00000000000000005551e-01  2.42688491002770956317e-01  1.22133902448751108238e-05 3
2.93750000000000011102e-01  1.00000000000000005551e-01  2.46397013521240243472e-01  1.13815393302241218976e-05 3
2.99999999999999988898e-01  1.00000000000000005551e-01  2.50010545300625608434e-01  1.05453006256361891957e-05 3
3.06250000000000022204e-01  1.00000000000000005551e-01  2.53527693255620967250e-01  9.70499649860512292321e-06 3
3.12500000000000000000e-01  1.00000000000000005551e-01  2.56947101458750937208e-01  8.86095091562344450153e-06 3
3.18749999999999977796e-01  1.00000000000000005551e-01  2.60267451663063476008e-01  8.01348927403910948897e-06 3
3.25000000000000011102e-01  1.00000000000000005551e-01  2.63487463810327615654e-01  7.16293826491520846389e-06 3
3.31249999999999988898e-01  1.00000000000000005551e-01  2.66605896524587160368e-01  6.30962581421590229525e-06 3
3.37500000000000022204e-01  1.00000000000000005551e-01  2.69621547590675969541e-01  5.45388089739917703014e-06 3
3.43750000000000000000e-01  1.00000000000000005551e-01  2.72533254417650805390e-01  4.59603336872005385771e-06 3
3.49999999999999977796e-01  1.00000000000000005551e-01  2.75339894487179048799e-01  3.73641402079405438030e-06 3
3.56250000000000011102e-01  1.00000000000000005551e-01  2.78040385786022414827e-01  2.87535418852513657839e-06 3
3.62499999999999988898e-01  1.00000000000000005551e-01  2.80633687223410199785e-01  2.01318585818510698005e-06 3
3.68750000000000022204e-01  1.00000000000000005551e-01  2.83118799032293255724e-01  1.15024143271247325515e-06 3
3.75000000000000000000e-01  1.00000000000000005551e-01  2.85494763154690467388e-01  2.86853521158647595257e-07 3
3.81249999999999977796e-01  1.00000000000000005551e-01  2.87760663611289102537e-01  5.76644939076498275199e-07 3
3.87500000000000011102e-01  1.00000000000000005551e-01  2.89915626854266084145e-01  1.43992111656388033225e-06 3
3.93749999999999988898e-01  1.00000000000000005551e-01  2.91958822104302351264e-01  2.30264216916076236430e-06 3
4.00000000000000022204e-01  1.00000000000000005551e-01  2.93889461670742757615e-01  3.16447549375542536154e-06 3
4.06250000000000000000e-01  1.00000000000000005551e-01  2.95706801255241791271e-01  4.02508887847874419208e-06 3
4.12499999999999977796e-01  1.00000000000000005551e-01  2.97410140238808851088e-01  4.88415052651847148013e-06 3
4.18750000000000011102e-01  1.00000000000000005551e-01  2.98998821951923732243e-01  5.74132917086078720104e-06 3
4.24999999999999988898e-01  1.00000000000000005551e-01  3.00472233927386311869e-01  6.59629451055243620772e-06 3
4.31250000000000022204e-01  1.00000000000000005551e-01  3.01829808136969968135e-01  7.44871680263825552970e-06 3
4.37500000000000000000e-01  1.00000000000000005551e-01  3.03071021209913249450e-01  8.29826748299788974350e-06 3
4.43749999999999977796e-01  1.00000000000000005551e-01  3.04195394634956428614e-01  9.14461902634666756740e-06 3
4.50000000000000011102e-01  1.00000000000000005551e-01  3.05202494944740831961e-01  9.98744514796312543581e-06 3
4.56249999999999988898e-01  1.00000000000000005551e-01  3.06091933882947031531e-01  1.08264209012221002126e-05 3
4.62500000000000022204e-01  1.00000000000000005551e-01  3.06863368553888515855e-01  1.16612228896473268946e-05 3
4.68750000000000000000e-01  1.00000000000000005551e-01  3.07516501554857657474e-01  1.24915292381566622737e-05 3
4.74999999999999977796e-01  1.00000000000000005551e-01  3.08051081090630340942e-01  1.33170198672316608679e-05 3
4.81250000000000011102e-01  1.00000000000000005551e-01  3.08466901070623467085e-01  1.41373765303320908515e-05 3
4.87499999999999988898e-01  1.00000000000000005551e-01  3.08763801188309816581e-01  1.49522829737680496009e-05 3
4.93750000000000022204e-01  1.00000000000000005551e-01  3.08941666983073792707e-01  1.57614250040905012895e-05 3
5.00000000000000000000e-01  1.00000000000000005551e-01  3.09000429884209948383e-01  1.65644907374473682182e-05 3
5.06249999999999977796e-01  1.00000000000000005551e-01  3.08940067237567783653e-01  1.73611705100995550310e-05 3
5.12499999999999955591e-01  1.00000000000000005551e-01  3.08760602314022469805e-01  1.81511572611148253031e-05 3
5.18750000000000044409e-01  1.00000000000000005551e-01  3.08462104300797679279e-01  1.89341463561198963816e-05 3
5.25000000000000022204e-01  1.00000000000000005551e-01  3.08044688274502043157e-01  1.97098359955294455403e-05 3
5.31250000000000000000e-01  1.00000000000000005551e-01  3.07508515156972861426e-01  2.04779271229527104481e-05 3
5.37499999999999977796e-01  1.00000000000000005551e-01  3.06853791653154517327e-01  2.12381236236458548206e-05 3
5.43749999999999955591e-01  1.00000000000000005551e-01  3.06080770171448190986e-01  2.19901324000626452460e-05 3
5.50000000000000044409e-01  1.00000000000000005551e-01  3.05189748726291620873e-01  2.27336635971742140327e-05 3
5.56250000000000022204e-01  1.00000000000000005551e-01  3.04181070823488386434e-01  2.34684304943888477624e-05 3
5.62500000000000000000e-01  1.00000000000000005551e-01  3.03055125327507168809e-01  2.41941498890785311460e-05 3
5.68749999999999977796e-01  1.00000000000000005551e-01  3.01812346311783330499e-01  2.49105419892758916944e-05 3
5.74999999999999955591e-01  1.00000000000000005551e-01  3.00453212891351850722e-01  2.56173305450690946827e-05 3
5.81250000000000044409e-01  1.00000000000000005551e-01  2.98978249037885390749e-01  2.63142432092022815482e-05 3
5.87500000000000022204e-01  1.00000000000000005551e-01  2.97388023378193533386e-01  2.70010111418361731239e-05 3
5.93750000000000000000e-01  1.00000000000000005551e-01  2.95683148974338283477e-01  2.76773697819865382996e-05 3
5.99999999999999977796e-01  1.00000000000000005551e-01  2.93864283088062727689e-01  2.83430581738408626791e-05 3
6.06249999999999955591e-01  1.00000000000000005551e-01  2.91932126926647439458e-01  2.89978198241280793468e-05 3
6.12500000000000044409e-01  1.00000000000000005551e-01  2.89887425373105689363e-01  2.96414022769586615880e-05 3
6.18750000000000022204e-01  1.00000000000000005551e-01  2.87730966698864609743e-01  3.02735573636248034290e-05 3
6.25000000000000000000e-01  1.00000000000000005551e-01  2.85463582259751103010e-01  3.08940414182057310200e-05 3
6.31249999999999977796e-01  1.00000000000000005551e-01  2.83086146175580477546e-01  3.15026152800657044395e-05 3
6.37499999999999955591e-01  1.00000000000000005551e-01  2.80599574993318556793e-01  3.20990442335133963070e-05 3