Titile = 'Poisson'  
VARIABLES = X, Y, U, Error, Rank 
zone N= 451, E = 800
DATAPACKING=POINT, ZONETYPE=FETRIANGLE
0.00000000000000000000e+00  5.00000000000000000000e-01  0.00000000000000000000e+00  0.00000000000000000000e+00 2
2.50000000000000013878e-02  5.00000000000000000000e-01  7.83918801830512379514e-02  6.72155447937056171881e-05 2
5.00000000000000027756e-02  5.00000000000000000000e-01  1.56300448356828575180e-01  1.34016683402293779181e-04 2
7.49999999999999972244e-02  5.00000000000000000000e-01  2.33245372291312896840e-01  1.99991564592494341923e-04 2
1.00000000000000005551e-01  5.00000000000000000000e-01  3.08752260943664202930e-01  2.64733431283192821581e-04 2
1.25000000000000000000e-01  5.00000000000000000000e-01  3.82355589236752557714e-01  3.27843128337224065660e-04 2
1.49999999999999994449e-01  5.00000000000000000000e-01  4.53601568176060399029e-01  3.88931563486349940462e-04 2
1.74999999999999988898e-01  5.00000000000000000000e-01  5.22050942609735169064e-01  4.47622106213629855631e-04 2
2.00000000000000011102e-01  5.00000000000000000000e-01  5.87281699382666833031e-01  5.03552909806304072049e-04 2
2.25000000000000005551e-01  5.00000000000000000000e-01  6.48891669187921293904e-01  5.56379142262364290161e-04 2
2.50000000000000000000e-01  5.00000000000000000000e-01  7.06501006074256809875e-01  6.05775112290651840397e-04 2
2.75000000000000022204e-01  5.00000000000000000000e-01  7.59754529322720584261e-01  6.51436277310457612089e-04 2
2.99999999999999988898e-01  5.00000000000000000000e-01  8.08323913253889858588e-01  6.93081121057592675072e-04 2
3.25000000000000011102e-01  5.00000000000000000000e-01  8.51909711464872265729e-01  7.30452889219912471219e-04 2
3.49999999999999977796e-01  5.00000000000000000000e-01  8.90243203015948503243e-01  7.63321172419284543764e-04 2
3.75000000000000000000e-01  5.00000000000000000000e-01  9.23088049184525694102e-01  7.91483326761044381215e-04 2
4.00000000000000022204e-01  5.00000000000000000000e-01  9.50241750571954701954e-01  8.14765723198829228124e-04 2
4.24999999999999988898e-01  5.00000000000000000000e-01  9.71536895579660719768e-01  8.33024818015837276164e-04 2
4.50000000000000011102e-01  5.00000000000000000000e-01  9.86842192557317310353e-01  8.46148037820459997249e-04 2
4.74999999999999977796e-01  5.00000000000000000000e-01  9.96063279259528866483e-01  8.54054473599097363490e-04 2
5.00000000000000000000e-01  5.00000000000000000000e-01  9.99143304620452754605e-01  8.56695379547245394747e-04 2
5.25000000000000022204e-01  5.00000000000000000000e-01  9.96063279259528977505e-01  8.54054473598986341187e-04 2
5.50000000000000044409e-01  5.00000000000000000000e-01  9.86842192557318087509e-01  8.46148037819571818829e-04 2
5.74999999999999955591e-01  5.00000000000000000000e-01  9.71536895579661941014e-01  8.33024818014727053139e-04 2
5.99999999999999977796e-01  5.00000000000000000000e-01  9.50241750571956922400e-01  8.14765723196719804378e-04 2
6.25000000000000000000e-01  5.00000000000000000000e-01  9.23088049184527914548e-01  7.91483326758823935165e-04 2
6.50000000000000022204e-01  5.00000000000000000000e-01  8.90243203015950834711e-01  7.63321172417064097715e-04 2
6.75000000000000044409e-01  5.00000000000000000000e-01  8.51909711464874264131e-01  7.30452889218025092077e-04 2
6.99999999999999955591e-01  5.00000000000000000000e-01  8.08323913253891745967e-01  6.93081121055705295930e-04 2
7.24999999999999977796e-01  5.00000000000000000000e-01  7.59754529322722582663e-01  6.51436277308459210644e-04 2
7.50000000000000000000e-01  5.00000000000000000000e-01  7.06501006074259363388e-01  6.05775112288209349742e-04 2
7.75000000000000022204e-01  5.00000000000000000000e-01  6.48891669187923403328e-01  5.56379142260365888717e-04 2
8.00000000000000044409e-01  5.00000000000000000000e-01  5.87281699382668831433e-01  5.03552909804416692907e-04 2
8.24999999999999955591e-01  5.00000000000000000000e-01  5.22050942609736945421e-01  4.47622106211964521094e-04 2
8.49999999999999977796e-01  5.00000000000000000000e-01  4.53601568176062786009e-01  3.88931563484073983261e-04 2
8.75000000000000000000e-01  5.00000000000000000000e-01  3.82355589236752890780e-01  3.27843128337002021055e-04 2
9.00000000000000022204e-01  5.00000000000000000000e-01  3.08752260943664480486e-01  2.64733431283026288128e-04 2
9.25000000000000044409e-01  5.00000000000000000000e-01  2.33245372291313091129e-01  1.99991564592438830772e-04 2
9.49999999999999955591e-01  5.00000000000000000000e-01  1.56300448356829407848e-01  1.34016683401572134215e-04 2
9.74999999999999977796e-01  5.00000000000000000000e-01  7.83918801830529449193e-02  6.72155447921235493780e-05 2
1.00000000000000000000e+00  5.00000000000000000000e-01  0.00000000000000000000e+00  1.22464679914735320717e-16 2
0.00000000000000000000e+00  5.25000000000000022204e-01  0.00000000000000000000e+00  0.00000000000000000000e+00 2
2.50000000000000013878e-02  5.25000000000000022204e-01  7.81464584604898843123e-02  7.07740596255501674960e-05 2
5.00000000000000027756e-02  5.25000000000000022204e-01  1.55811715965118002813e-01  1.40513826757171500503e-04 2
7.49999999999999972244e-02  5.25000000000000022204e-01  2.32516879442664692323e-01  2.08850264924426154423e-04 2
1.00000000000000005551e-01  5.25000000000000022204e-01  3.07788979215054381289e-01  2.75418895443191313888e-04 2
1.25000000000000000000e-01  5.25000000000000022204e-01  3.81163885003218960712e-01  3.39862054028139404238e-04 2
1.49999999999999994449e-01  5.25000000000000022204e-01  4.52189167405384173648e-01  4.01831135135088945987e-04 2
1.74999999999999988898e-01  5.25000000000000022204e-01  5.20426887195979293033e-01  4.60988820030650003901e-04 2
2.00000000000000011102e-01  5.25000000000000022204e-01  5.85456295243599100786e-01  5.17011279467127771170e-04 2
2.25000000000000005551e-01  5.25000000000000022204e-01  6.46876426402210102928e-01  5.69590337300196480896e-04 2
2.50000000000000000000e-01  5.25000000000000022204e-01  7.04308571387177395628e-01  6.18435577929843383060e-04 2
2.75000000000000022204e-01  5.25000000000000022204e-01  7.57398611402428145745e-01  6.63276378319421766605e-04 2
2.99999999999999988898e-01  5.25000000000000022204e-01  8.05819201132466855775e-01  7.03863844594754262118e-04 2
3.25000000000000011102e-01  5.25000000000000022204e-01  8.49271786648071680403e-01  7.39972633585939121303e-04 2
3.49999999999999977796e-01  5.25000000000000022204e-01  8.87488445791704161358e-01  7.71402640985296983445e-04 2
3.75000000000000000000e-01  5.25000000000000022204e-01  9.20233539702056124732e-01  7.97980539704590263739e-04 2
4.00000000000000022204e-01  5.25000000000000022204e-01  9.47305165300177942633e-01  8.19561154303705130530e-04 2
4.24999999999999988898e-01  5.25000000000000022204e-01  9.68536399785350887726e-01  8.36028659794707529329e-04 2
4.50000000000000011102e-01  5.25000000000000022204e-01  9.83796329469827646186e-01  8.47297595574669770713e-04 2
4.74999999999999977796e-01  5.25000000000000022204e-01  9.92990856610032723850e-01  8.53313687536161324942e-04 2
5.00000000000000000000e-01  5.25000000000000022204e-01  9.96063279259528866483e-01  8.54054473599097363490e-04 2
5.25000000000000022204e-01  5.25000000000000022204e-01  9.92994640567738229286e-01  8.49529729830655888634e-04 2
5.50000000000000044409e-01  5.25000000000000022204e-01  9.83803845369362939266e-01  8.39781696039265668219e-04 2
5.74999999999999955591e-01  5.25000000000000022204e-01  9.68547543343923122983e-01  8.24885101222583294600e-04 2
5.99999999999999977796e-01  5.25000000000000022204e-01  9.47319779464009692482e-01  8.04946990472066303823e-04 2
6.25000000000000000000e-01  5.25000000000000022204e-01  9.20251413885850078067e-01  7.80106355910636928286e-04 2
6.50000000000000022204e-01  5.25000000000000022204e-01  8.87509314857696018919e-01  7.50533574993550445242e-04 2
6.75000000000000044409e-01  5.25000000000000022204e-01  8.49295329621767680628e-01  7.16429659890049919113e-04 2
6.99999999999999955591e-01  5.25000000000000022204e-01  8.05845039655126771372e-01  6.78025321934838665072e-04 2
7.24999999999999977796e-01  5.25000000000000022204e-01  7.57426307925721631342e-01  6.35579855025936169000e-04 2
7.50000000000000000000e-01  5.25000000000000022204e-01  7.04337627123465703782e-01  5.89379841641646251560e-04 2
7.75000000000000022204e-01  5.25000000000000022204e-01  6.46906279054715427357e-01  5.39737684794983074710e-04 2
8.00000000000000044409e-01  5.25000000000000022204e-01  5.85486316554059249562e-01  4.86989969007090017783e-04 2
8.24999999999999955591e-01  5.25000000000000022204e-01  5.20456380362750437030e-01  4.31495653259617029107e-04 2
8.49999999999999977796e-01  5.25000000000000022204e-01  4.52217364441105718065e-01  3.73634099413655551558e-04 2
8.75000000000000000000e-01  5.25000000000000022204e-01  3.81189944116505585736e-01  3.13802940741625402410e-04 2
9.00000000000000022204e-01  5.25000000000000022204e-01  3.07811982313010989998e-01  2.52415797486693627150e-04 2
9.25000000000000044409e-01  5.25000000000000022204e-01  2.32535829857828668654e-01  1.89899849760588601555e-04 2
9.49999999999999955591e-01  5.25000000000000022204e-01  1.55825536509248047112e-01  1.26693282627238223981e-04 2
9.74999999999999977796e-01  5.25000000000000022204e-01  7.81539898963406060028e-02  6.32426237749533770582e-05 2
1.00000000000000000000e+00  5.25000000000000022204e-01  0.00000000000000000000e+00  1.22087162177078897013e-16 2
0.00000000000000000000e+00  5.50000000000000044409e-01  0.00000000000000000000e+00  0.00000000000000000000e+00 2
2.50000000000000013878e-02  5.50000000000000044409e-01  7.74192543788592424381e-02  7.38796851709883073411e-05 2
5.00000000000000027756e-02  5.50000000000000044409e-01  1.54362385114916039752e-01  1.46112072557658123628e-04 2
7.49999999999999972244e-02  5.50000000000000044409e-01  2.30354890350828900303e-01  2.16373695638427676613e-04 2
1.00000000000000005551e-01  5.50000000000000044409e-01  3.04928137354861739095e-01  2.84345035027055992316e-04 2
1.25000000000000000000e-01  5.50000000000000044409e-01  3.77622251793420626864e-01  3.49712492506482064414e-04 2
1.49999999999999994449e-01  5.50000000000000044409e-01  4.47988952940630347221e-01  4.12170393079835939432e-04 2
1.74999999999999988898e-01  5.50000000000000044409e-01  5.15594317325094864124e-01  4.71423022541772596128e-04 2
2.00000000000000011102e-01  5.50000000000000044409e-01  5.80021453766314643019e-01  5.27186696732462323212e-04 2
2.25000000000000005551e-01  5.50000000000000044409e-01  6.40873073309468077596e-01  5.79191848521731778021e-04 2
2.50000000000000000000e-01  5.50000000000000044409e-01  6.97773938222820189203e-01  6.27185110889993957528e-04 2
2.75000000000000022204e-01  5.50000000000000044409e-01  7.50373174972608469879e-01  6.70931369529559340492e-04 2
2.99999999999999988898e-01  5.50000000000000044409e-01  7.98346436931134939563e-01  7.10215756322685187740e-04 2
3.25000000000000011102e-01  5.50000000000000044409e-01  8.41397903500423760548e-01  7.44845555235018608187e-04 2
3.49999999999999977796e-01  5.50000000000000044409e-01  8.79262103340891276737e-01  7.74651994159047951882e-04 2
3.75000000000000000000e-01  5.50000000000000044409e-01  9.11705550476490711453e-01  7.99491899393656169082e-04 2
4.00000000000000022204e-01  5.50000000000000044409e-01  9.38528183198554355471e-01  8.19249193198312575248e-04 2
4.24999999999999988898e-01  5.50000000000000044409e-01  9.59564596903390798488e-01  8.33836218816497165562e-04 2
4.50000000000000011102e-01  5.50000000000000044409e-01  9.74685063266328199916e-01  8.43194881248510164085e-04 2
4.74999999999999977796e-01  5.50000000000000044409e-01  9.83796329469827535164e-01  8.47297595574669770713e-04 2
5.00000000000000000000e-01  5.50000000000000044409e-01  9.86842192557317976487e-01  8.46148037819682841132e-04 2
5.25000000000000022204e-01  5.50000000000000044409e-01  9.83803845369362828244e-01  8.39781696039376690521e-04 2
5.50000000000000044409e-01  5.50000000000000044409e-01  9.74699991926081033000e-01  8.28266221495566057342e-04 2
5.74999999999999955591e-01  5.50000000000000044409e-01  9.59586731540665649476e-01  8.11701581541757200000e-04 2
5.99999999999999977796e-01  5.50000000000000044409e-01  9.38557212374713012437e-01  7.90220017039766631228e-04 2
6.25000000000000000000e-01  5.50000000000000044409e-01  9.11741056568045049602e-01  7.63985807839318020740e-04 2
6.50000000000000022204e-01  5.50000000000000044409e-01  8.79303560484955282206e-01  7.33194850095153505265e-04 2
6.75000000000000044409e-01  5.50000000000000044409e-01  8.41444675006823628038e-01  6.98074048835262139789e-04 2
6.99999999999999955591e-01  5.50000000000000044409e-01  7.98397772159073149112e-01  6.58880528384475638859e-04 2
7.24999999999999977796e-01  5.50000000000000044409e-01  7.50428205680188309401e-01  6.15900661949719818722e-04 2
7.50000000000000000000e-01  5.50000000000000044409e-01  6.97831674413738278773e-01  5.69448919972015410451e-04 2
7.75000000000000022204e-01  5.50000000000000044409e-01  6.40932398622988341863e-01  5.19866535001578533581e-04 2
8.00000000000000044409e-01  5.50000000000000044409e-01  5.80081120484005285931e-01  4.67519979041930433539e-04 2
8.24999999999999955591e-01  5.50000000000000044409e-01  5.15652941099582706741e-01  4.12799248054041001410e-04 2
8.49999999999999977796e-01  5.50000000000000044409e-01  4.48045007385701410385e-01  3.56115948008883798082e-04 2
8.75000000000000000000e-01  5.50000000000000044409e-01  3.77674063107628021907e-01  2.97901178299198043931e-04 2
9.00000000000000022204e-01  5.50000000000000044409e-01  3.04973879178028539627e-01  2.38603211860366482000e-04 2
9.25000000000000044409e-01  5.50000000000000044409e-01  2.30392579068976061096e-01  1.78684977491405660999e-04 2
9.49999999999999955591e-01  5.50000000000000044409e-01  1.54389875828750217091e-01  1.18621358723591807660e-04 2
9.74999999999999977796e-01  5.50000000000000044409e-01  7.74342377294032491175e-02  5.88963346271065280035e-05 2
1.00000000000000000000e+00  5.50000000000000044409e-01  0.00000000000000000000e+00  1.20956936486499618490e-16 2
0.00000000000000000000e+00  5.74999999999999955591e-01  0.00000000000000000000e+00  0.00000000000000000000e+00 2
2.50000000000000013878e-02  5.74999999999999955591e-01  7.62147684410781622866e-02  7.64962262801149872615e-05 2
5.00000000000000027756e-02  5.74999999999999955591e-01  1.51961424980168846588e-01  1.50743338453579456271e-04 2
7.49999999999999972244e-02  5.74999999999999955591e-01  2.26772783453756315852e-01  2.22466416017086388024e-04 2
1.00000000000000005551e-01  5.74999999999999955591e-01  3.00187436468059898331e-01  2.91393753837021485253e-04 2
1.25000000000000000000e-01  5.74999999999999955591e-01  3.71752600161076085516e-01  3.57258505275959148406e-04 2
1.49999999999999994449e-01  5.74999999999999955591e-01  4.41026905687519565902e-01  4.19800405524972664040e-04 2
1.74999999999999988898e-01  5.74999999999999955591e-01  5.07583120186065994695e-01  4.78767594681461794437e-04 2
2.00000000000000011102e-01  5.74999999999999955591e-01  5.71010780441673193586e-01  5.33918540887245995918e-04 2
2.25000000000000005551e-01  5.74999999999999955591e-01  6.30918723010145066077e-01  5.85024047102034039369e-04 2
2.50000000000000000000e-01  5.74999999999999955591e-01  6.86937495222358252001e-01  6.31869312662236559675e-04 2
2.75000000000000022204e-01  5.74999999999999955591e-01  7.38721632227297142492e-01  6.74256013123541997345e-04 2
2.99999999999999988898e-01  5.74999999999999955591e-01  7.85951786061854895671e-01  7.12004358880413690258e-04 2
3.25000000000000011102e-01  5.74999999999999955591e-01  8.28336693647218291758e-01  7.44955093632260201275e-04 2
3.49999999999999977796e-01  5.74999999999999955591e-01  8.65614971601800786694e-01  7.72971397053012765355e-04 2
3.75000000000000000000e-01  5.74999999999999955591e-01  8.97556726824109585294e-01  7.95940660933025512236e-04 2
4.00000000000000022204e-01  5.74999999999999955591e-01  9.23964972929935179913e-01  8.13776113674946621757e-04 2
4.24999999999999988898e-01  5.74999999999999955591e-01  9.44676843820351552772e-01  8.26418273832452143779e-04 2
4.50000000000000011102e-01  5.74999999999999955591e-01  9.59564596903391575644e-01  8.33836218815942054050e-04 2
4.74999999999999977796e-01  5.74999999999999955591e-01  9.68536399785351220793e-01  8.36028659794485484724e-04 2
5.00000000000000000000e-01  5.74999999999999955591e-01  9.71536895579661496924e-01  8.33024818015171142349e-04 2
5.25000000000000022204e-01  5.74999999999999955591e-01  9.68547543343922900938e-01  8.24885101222805339205e-04 2
5.50000000000000044409e-01  5.74999999999999955591e-01  9.59586731540665538454e-01  8.11701581541868222303e-04 2
5.74999999999999955591e-01  5.74999999999999955591e-01  9.44709663816053146768e-01  7.93598278130858147961e-04 2
5.99999999999999977796e-01  5.74999999999999955591e-01  9.24008017794468394790e-01  7.70731249141842766903e-04 2
6.25000000000000000000e-01  5.74999999999999955591e-01  8.97609378987099804093e-01  7.43288497942806714036e-04 2
6.50000000000000022204e-01  5.74999999999999955591e-01  8.65676453300583181871e-01  7.11489698270728609941e-04 2
6.75000000000000044409e-01  5.74999999999999955591e-01  8.28406062998996106650e-01  6.75585741854556331987e-04 2
6.99999999999999955591e-01  5.74999999999999955591e-01  7.86027932310595200960e-01  6.35858110140108401254e-04 2
7.24999999999999977796e-01  5.74999999999999955591e-01  7.38803270171319970139e-01  5.92618069100714350839e-04 2
7.50000000000000000000e-01  5.74999999999999955591e-01  6.87023158852251736306e-01  5.46205682768863276522e-04 2
7.75000000000000022204e-01  5.74999999999999955591e-01  6.31006758419807689542e-01  4.96988637439521596662e-04 2
8.00000000000000044409e-01  5.74999999999999955591e-01  5.71099338117802557413e-01  4.45360864757993191176e-04 2
8.24999999999999955591e-01  5.74999999999999955591e-01  5.07670146831858515313e-01  3.91740948889052198467e-04 2
8.49999999999999977796e-01  5.74999999999999955591e-01  4.41110135791716373443e-01  3.36570301328276144659e-04 2
8.75000000000000000000e-01  5.74999999999999955591e-01  3.71829547578421182319e-01  2.80311087930973368287e-04 2
9.00000000000000022204e-01  5.74999999999999955591e-01  3.00255386324727424618e-01  2.23443897169606220388e-04 2
9.25000000000000044409e-01  5.74999999999999955591e-01  2.26828784722304804822e-01  1.66465147468708440925e-04 2
9.49999999999999955591e-01  5.74999999999999955591e-01  1.52002284073534194020e-01  1.09884245088343046604e-04 2
9.74999999999999977796e-01  5.74999999999999955591e-01  7.62370441457578956745e-02  5.42205216005064993823e-05 2
1.00000000000000000000e+00  5.74999999999999955591e-01  0.00000000000000000000e+00  1.19080971060218137983e-16 2
0.00000000000000000000e+00  5.99999999999999977796e-01  0.00000000000000000000e+00  0.00000000000000000000e+00 2
2.50000000000000013878e-02  5.99999999999999977796e-01  7.45404447842492878795e-02  7.85894703428935414991e-05 2
5.00000000000000027756e-02  5.99999999999999977796e-01  1.48623673860427796267e-01  1.54343489230185371142e-04 2
7.49999999999999972244e-02  5.99999999999999977796e-01  2.21792695587539140378e-01  2.27038906512821991868e-04 2
1.00000000000000005551e-01  5.99999999999999977796e-01  2.93596171267345495970e-01  2.96454878891072581837e-04 2
1.25000000000000000000e-01  5.99999999999999977796e-01  3.63591197914381714096e-01  3.62374114632635357935e-04 2
1.49999999999999994449e-01  5.99999999999999977796e-01  4.31346038842669698976e-01  4.24584270719507994585e-04 2
1.74999999999999988898e-01  5.99999999999999977796e-01  4.96442785193553171030e-01  4.82879534415003863757e-04 2
2.00000000000000011102e-01  5.99999999999999977796e-01  5.58479931983626554093e-01  5.37062391320897170033e-04 2
2.25000000000000005551e-01  5.99999999999999977796e-01  6.17074852802659168383e-01  5.86945556931839362846e-04 2
2.50000000000000000000e-01  5.99999999999999977796e-01  6.71866157933031282745e-01  6.32354030925985632905e-04 2
2.75000000000000022204e-01  5.99999999999999977796e-01  7.22515921390255222434e-01  6.73127223362768312143e-04 2
2.99999999999999988898e-01  5.99999999999999977796e-01  7.68711763194981356762e-01  7.09121098832032892290e-04 2
3.25000000000000011102e-01  5.99999999999999977796e-01  8.10168774077280828827e-01  7.40210286649278792481e-04 2
3.49999999999999977796e-01  5.99999999999999977796e-01  8.46631270780101585771e-01  7.66290110741030261465e-04 2
3.75000000000000000000e-01  5.99999999999999977796e-01  8.77874371166164402247e-01  7.87278500415156123893e-04 2
4.00000000000000022204e-01  5.99999999999999977796e-01  9.03705379436193778631e-01  8.03117751279947000853e-04 2
4.24999999999999988898e-01  5.99999999999999977796e-01  9.23964972929935401957e-01  8.13776113674724577152e-04 2
4.50000000000000011102e-01  5.99999999999999977796e-01  9.38528183198555687738e-01  8.19249193197202352223e-04 2
4.74999999999999977796e-01  5.99999999999999977796e-01  9.47305165300179718990e-01  8.19561154302039795994e-04 2
5.00000000000000000000e-01  5.99999999999999977796e-01  9.50241750571956478311e-01  8.14765723197163893587e-04 2
5.25000000000000022204e-01  5.99999999999999977796e-01  9.47319779464009581460e-01  8.04946990472177326126e-04 2
5.50000000000000044409e-01  5.99999999999999977796e-01  9.38557212374713012437e-01  7.90220017039766631228e-04 2
5.74999999999999955591e-01  5.99999999999999977796e-01  9.24008017794468394790e-01  7.70731249141842766903e-04 2
5.99999999999999977796e-01  5.99999999999999977796e-01  9.03761838438151721142e-01  7.46658749322115511404e-04 2
6.25000000000000000000e-01  5.99999999999999977796e-01  8.77943437416086380765e-01  7.18212250493177606359e-04 2
6.50000000000000022204e-01  5.99999999999999977796e-01  8.46711927851475421036e-01  6.85633039367306018619e-04 2
6.75000000000000044409e-01  5.99999999999999977796e-01  8.10259790690303960403e-01  6.49193673626258238585e-04 2
6.99999999999999955591e-01  5.99999999999999977796e-01  7.68811686759642731737e-01  6.09197534170657917230e-04 2
7.24999999999999977796e-01  5.99999999999999977796e-01  7.22623070404007528111e-01  5.65978209610462634771e-04 2
7.50000000000000000000e-01  5.99999999999999977796e-01  6.71978613258980117529e-01  5.19898704977261871818e-04 2
7.75000000000000022204e-01  5.99999999999999977796e-01  6.17190447898968153062e-01  4.71350460622965705682e-04 2
8.00000000000000044409e-01  5.99999999999999977796e-01  5.58596242213930449516e-01  4.20752161017112769059e-04 2
8.24999999999999955591e-01  5.99999999999999977796e-01  4.96557116420481392538e-01  3.68548307486837867231e-04 2
8.49999999999999977796e-01  5.99999999999999977796e-01  4.31455415588416546502e-01  3.15207524972771491178e-04 2
8.75000000000000000000e-01  5.99999999999999977796e-01  3.63692351456592288805e-01  2.61220572422171670723e-04 2
9.00000000000000022204e-01  5.99999999999999977796e-01  2.93685528115321947684e-01  2.07098030914731889851e-04 2
9.25000000000000044409e-01  5.99999999999999977796e-01  2.21866366839146567091e-01  1.53367654905534056553e-04 2
9.49999999999999955591e-01  5.99999999999999977796e-01  1.48677445958805998227e-01  1.00571390852066677724e-04 2
9.74999999999999977796e-01  5.99999999999999977796e-01  7.45697721611906366723e-02  4.92620934016696487845e-05 2
1.00000000000000000000e+00  5.99999999999999977796e-01  0.00000000000000000000e+00  1.16470831848909259188e-16 2
0.00000000000000000000e+00  6.25000000000000000000e-01  0.00000000000000000000e+00  0.00000000000000000000e+00 2
2.50000000000000013878e-02  6.25000000000000000000e-01  7.24066258636881787680e-02  8.01268186114978409051e-05 2
5.00000000000000027756e-02  6.25000000000000000000e-01  1.44369748824979937663e-01  1.56851605041780084449e-04 2
7.49999999999999972244e-02  6.25000000000000000000e-01  2.15445387120042630702e-01  2.30006506078489492140e-04 2
1.00000000000000005551e-01  6.25000000000000000000e-01  2.85195051482133477005e-01  2.99424819035831735192e-04 2
1.25000000000000000000e-01  6.25000000000000000000e-01  3.53188448845493108141e-01  3.64941747780678227286e-04 2
1.49999999999999994449e-01  6.25000000000000000000e-01  4.19006135248981781416e-01  4.26395414956093343761e-04 2
1.74999999999999988898e-01  6.25000000000000000000e-01  4.82242101533059408514e-01  4.83628174529682208771e-04 2
2.00000000000000011102e-01  6.25000000000000000000e-01  5.42506275881203925415e-01  5.36488223794928664745e-04 2
2.25000000000000005551e-01  6.25000000000000000000e-01  5.99426927803532016981e-01  5.84831478125602544083e-04 2
2.50000000000000000000e-01  6.25000000000000000000e-01  6.52652958789987081012e-01  6.28523648201095852528e-04 2
2.75000000000000022204e-01  6.25000000000000000000e-01  7.01856065569537501680e-01  6.67442447812804928731e-04 2
2.99999999999999988898e-01  6.25000000000000000000e-01  7.46732762698092744635e-01  7.01479858720044369136e-04 2
3.25000000000000011102e-01  6.25000000000000000000e-01  7.87006252059536781651e-01  7.30544384268561053375e-04 2
3.49999999999999977796e-01  6.25000000000000000000e-01  8.22428127798745634003e-01  7.54563232910121506336e-04 2
3.75000000000000000000e-01  6.25000000000000000000e-01  8.52779906209190641242e-01  7.73484384083089615558e-04 2
4.00000000000000022204e-01  6.25000000000000000000e-01  8.77874371166164291225e-01  7.87278500415156123893e-04 2
4.24999999999999988898e-01  6.25000000000000000000e-01  8.97556726824110473473e-01  7.95940660932026311514e-04 2
4.50000000000000011102e-01  6.25000000000000000000e-01  9.11705550476491932699e-01  7.99491899392545946057e-04 2
4.74999999999999977796e-01  6.25000000000000000000e-01  9.20233539702057456999e-01  7.97980539703257996109e-04 2
5.00000000000000000000e-01  6.25000000000000000000e-01  9.23088049184527692503e-01  7.91483326759045979770e-04 2
5.25000000000000022204e-01  6.25000000000000000000e-01  9.20251413885849856023e-01  7.80106355910858972891e-04 2
5.50000000000000044409e-01  6.25000000000000000000e-01  9.11741056568044827557e-01  7.63985807839540065345e-04 2
5.74999999999999955591e-01  6.25000000000000000000e-01  8.97609378987099693070e-01  7.43288497942917736339e-04 2
5.99999999999999977796e-01  6.25000000000000000000e-01  8.77943437416085825653e-01  7.18212250493732717871e-04 2
6.25000000000000000000e-01  6.25000000000000000000e-01  8.52864404485522697996e-01  6.88986107751032861302e-04 2
6.50000000000000022204e-01  6.25000000000000000000e-01  8.22526820648707079897e-01  6.55870382948786634358e-04 2
6.75000000000000044409e-01  6.25000000000000000000e-01  7.87117639880449582179e-01  6.19156563355871547571e-04 2
6.99999999999999955591e-01  6.25000000000000000000e-01  7.46855075491306585889e-01  5.79167065506203115888e-04 2
7.24999999999999977796e-01  6.25000000000000000000e-01  7.01987253178480763438e-01  5.36254838869543171143e-04 2
7.50000000000000000000e-01  6.25000000000000000000e-01  6.52790679631293224716e-01  4.90802806895063170600e-04 2
7.75000000000000022204e-01  6.25000000000000000000e-01  5.99568536156082299016e-01  4.43223125575431531331e-04 2
8.00000000000000044409e-01  6.25000000000000000000e-01  5.42648807874983374333e-01  3.93956230015590769256e-04 2
8.24999999999999955591e-01  6.25000000000000000000e-01  4.82382260077659497099e-01  3.43469629929704645122e-04 2
8.49999999999999977796e-01  6.25000000000000000000e-01  4.19140274256790845708e-01  2.92256407147140073732e-04 2
8.75000000000000000000e-01  6.25000000000000000000e-01  3.53312557228766699335e-01  2.40833364507142544397e-04 2
9.00000000000000022204e-01  6.25000000000000000000e-01  2.85304737522737994482e-01  1.89738778431425281212e-04 2
9.25000000000000044409e-01  6.25000000000000000000e-01  2.15535863905795765927e-01  1.39529720325465289577e-04 2
9.49999999999999955591e-01  6.25000000000000000000e-01  1.44435821493444083163e-01  9.07789365777456058737e-05 2
9.74999999999999977796e-01  6.25000000000000000000e-01  7.24426813687080867199e-02  4.40713135917147891263e-05 2
1.00000000000000000000e+00  6.25000000000000000000e-01  0.00000000000000000000e+00  1.13142611228770026067e-16 2
0.00000000000000000000e+00  6.50000000000000022204e-01  0.00000000000000000000e+00  0.00000000000000000000e+00 2
2.50000000000000013878e-02  6.50000000000000022204e-01  6.98264893509294298779e-02  8.10768245001203258226e-05 2
5.00000000000000027756e-02  6.50000000000000022204e-01  1.39225919885870214054e-01  1.58209072892656621434e-04 2
7.49999999999999972244e-02  6.50000000000000022204e-01  2.07770054131904968742e-01  2.31288105234150886957e-04 2
1.00000000000000005551e-01  6.50000000000000022204e-01  2.75035953141330835603e-01  3.00204931827474652550e-04 2
1.25000000000000000000e-01  6.50000000000000022204e-01  3.40608584573886929991e-01  3.64850362206070588655e-04 2
1.49999999999999994449e-01  6.50000000000000022204e-01  4.04083381624607329563e-01  4.25115562866340557235e-04 2
1.74999999999999988898e-01  6.50000000000000022204e-01  4.65068736963262230333e-01  4.80893077706323612830e-04 2
2.00000000000000011102e-01  6.50000000000000022204e-01  5.23188416316051951860e-01  5.32078298247418146616e-04 2
2.25000000000000005551e-01  6.50000000000000022204e-01  5.78083876862413470477e-01  5.78571321182663744764e-04 2
2.50000000000000000000e-01  6.50000000000000022204e-01  6.29416476233511712479e-01  6.20279101538723232068e-04 2
2.75000000000000022204e-01  6.50000000000000022204e-01  6.76869558582624319953e-01  6.57117798758988236330e-04 2
2.99999999999999988898e-01  6.50000000000000022204e-01  7.20150404951638289930e-01  6.89015215703969730043e-04 2
3.25000000000000011102e-01  6.50000000000000022204e-01  7.58992035982685497864e-01  7.15913241852939030707e-04 2
3.49999999999999977796e-01  6.50000000000000022204e-01  7.93154855918684065230e-01  7.37770227552503321533e-04 2
3.75000000000000000000e-01  6.50000000000000022204e-01  8.22428127798745745025e-01  7.54563232910121506336e-04 2
4.00000000000000022204e-01  6.50000000000000022204e-01  8.46631270780101807816e-01  7.66290110740808216860e-04 2
4.24999999999999988898e-01  6.50000000000000022204e-01  8.65614971601801341805e-01  7.72971397052457653842e-04 2