Titile = 'Poisson'  
VARIABLES = X, Y, U, Error, Rank 
zone N= 6601, E = 12800
DATAPACKING=POINT, ZONETYPE=FETRIANGLE
0.00000000000000000000e+00  2.50000000000000000000e-01  0.00000000000000000000e+00  0.00000000000000000000e+00 1
6.25000000000000034694e-03  2.50000000000000000000e-01  1.38828902970759022334e-02  2.26781565559538988985e-07 1
1.25000000000000006939e-02  2.50000000000000000000e-01  2.77604057908156405532e-02  4.76160556255045275265e-07 1
1.87499999999999993061e-02  2.50000000000000000000e-01  4.16271970952487926909e-02  7.47380408727682521430e-07 1
2.50000000000000013878e-02  2.50000000000000000000e-01  5.54779189490332974577e-02  1.03968589033887059969e-06 1
3.12500000000000000000e-02  2.50000000000000000000e-01  6.93072322757891379208e-02  1.35232375658711490019e-06 1
3.74999999999999986122e-02  2.50000000000000000000e-01  8.31098062420574240639e-02  1.68454339803669750353e-06 1
4.37499999999999972244e-02  2.50000000000000000000e-01  9.68803203120968958739e-02  2.03559747094517184962e-06 1
5.00000000000000027756e-02  2.50000000000000000000e-01  1.10613466298727800008e-01  2.40474250934319400130e-06 1
5.62500000000000013878e-02  2.50000000000000000000e-01  1.24303950409441629765e-01  2.79123950902571138499e-06 1
6.25000000000000000000e-02  2.50000000000000000000e-01  1.37946495286978887407e-01  3.19435449258609338585e-06 1
6.87500000000000055511e-02  2.50000000000000000000e-01  1.51535842043608565133e-01  3.61335903459325535891e-06 1
7.49999999999999972244e-02  2.50000000000000000000e-01  1.65066752288308388197e-01  4.04753076327368788156e-06 1
8.12500000000000027756e-02  2.50000000000000000000e-01  1.78534010146078947479e-01  4.49615382464019219810e-06 1
8.74999999999999944489e-02  2.50000000000000000000e-01  1.91932424268611873108e-01  4.95851930920609973441e-06 1
9.37500000000000000000e-02  2.50000000000000000000e-01  2.05256829835531173778e-01  5.43392564747446904505e-06 1
1.00000000000000005551e-01  2.50000000000000000000e-01  2.18502090545443505842e-01  5.92167896698581053272e-06 1
1.06249999999999997224e-01  2.50000000000000000000e-01  2.31663100596027654587e-01  6.42109341200680638906e-06 1
1.12500000000000002776e-01  2.50000000000000000000e-01  2.44734786652399005646e-01  6.93149142758087144500e-06 1
1.18749999999999994449e-01  2.50000000000000000000e-01  2.57712109802982980433e-01  7.45220401443535962471e-06 1
1.25000000000000000000e-01  2.50000000000000000000e-01  2.70590067502156694790e-01  7.98257094175580661499e-06 1
1.31250000000000005551e-01  2.50000000000000000000e-01  2.83363695498892953495e-01  8.52194093398095375846e-06 1
1.37500000000000011102e-01  2.50000000000000000000e-01  2.96028069750669753368e-01  9.06967182584539344248e-06 1
1.43749999999999988898e-01  2.50000000000000000000e-01  3.08578308321907190948e-01  9.62513068497594659334e-06 1
1.49999999999999994449e-01  2.50000000000000000000e-01  3.21009573266186176710e-01  1.01876939168632496546e-05 1
1.56250000000000000000e-01  2.50000000000000000000e-01  3.33317072491541799284e-01  1.07567473314196249135e-05 1
1.62500000000000005551e-01  2.50000000000000000000e-01  3.45496061608087878803e-01  1.13316861986012540342e-05 1
1.68750000000000011102e-01  2.50000000000000000000e-01  3.57541845757272769291e-01  1.19119152781066439672e-05 1
1.74999999999999988898e-01  2.50000000000000000000e-01  3.69449781422057366154e-01  1.24968488281473888435e-05 1
1.81249999999999994449e-01  2.50000000000000000000e-01  3.81215278217305608699e-01  1.30859106051706142182e-05 1
1.87500000000000000000e-01  2.50000000000000000000e-01  3.92833800659718290760e-01  1.36785338327172212303e-05 1
1.93750000000000005551e-01  2.50000000000000000000e-01  4.04300869916591532061e-01  1.42741611769969800605e-05 1
2.00000000000000011102e-01  2.50000000000000000000e-01  4.15612065532758867548e-01  1.48722446945415143205e-05 1
2.06249999999999988898e-01  2.50000000000000000000e-01  4.26763027135027672720e-01  1.54722457769151944262e-05 1
2.12499999999999994449e-01  2.50000000000000000000e-01  4.37749456113458390583e-01  1.60736350858781129602e-05 1
2.18750000000000000000e-01  2.50000000000000000000e-01  4.48567117278839244676e-01  1.66758924788346085677e-05 1
2.25000000000000005551e-01  2.50000000000000000000e-01  4.59211840495708123466e-01  1.72785069333381002821e-05 1
2.31250000000000011102e-01  2.50000000000000000000e-01  4.69679522290305795362e-01  1.78809764576071117403e-05 1
2.37499999999999988898e-01  2.50000000000000000000e-01  4.79966127432820188758e-01  1.84828080068699662775e-05 1
2.43749999999999994449e-01  2.50000000000000000000e-01  4.90067690493327268175e-01  1.90835173909387201263e-05 1
2.50000000000000000000e-01  2.50000000000000000000e-01  4.99980317370820048772e-01  1.96826291798402053246e-05 1
2.56249999999999977796e-01  2.50000000000000000000e-01  5.09700186794737164497e-01  2.02796766093360503191e-05 1
2.62500000000000011102e-01  2.50000000000000000000e-01  5.19223551798408067270e-01  2.08742014876639458976e-05 1
2.68749999999999988898e-01  2.50000000000000000000e-01  5.28546741163860245294e-01  2.14657540921203704443e-05 1
2.75000000000000022204e-01  2.50000000000000000000e-01  5.37666160837404150108e-01  2.20538930822966605660e-05 1
2.81250000000000000000e-01  2.50000000000000000000e-01  5.46578295315479301131e-01  2.26381853993817827586e-05 1
2.87499999999999977796e-01  2.50000000000000000000e-01  5.55279709000209953373e-01  2.32182061719043986159e-05 1
2.93750000000000011102e-01  2.50000000000000000000e-01  5.63767047524150854976e-01  2.37935386216969746442e-05 1
2.99999999999999988898e-01  2.50000000000000000000e-01  5.72037039043703843255e-01  2.43637739804070108107e-05 1
3.06250000000000022204e-01  2.50000000000000000000e-01  5.80086495500740317866e-01  2.49285113828046078766e-05 1
3.12500000000000000000e-01  2.50000000000000000000e-01  5.87912313851882251114e-01  2.54873577970604614507e-05 1
3.18749999999999977796e-01  2.50000000000000000000e-01  5.95511477265030619854e-01  2.60399279308209941064e-05 1
3.25000000000000011102e-01  2.50000000000000000000e-01  6.02881056282653537970e-01  2.65858441373945098007e-05 1
3.31249999999999988898e-01  2.50000000000000000000e-01  6.10018209951357026632e-01  2.71247363516913253534e-05 1
3.37500000000000022204e-01  2.50000000000000000000e-01  6.16920186917366164536e-01  2.76562419945225457241e-05 1
3.43750000000000000000e-01  2.50000000000000000000e-01  6.23584326487431450659e-01  2.81800059040993033932e-05 1
3.49999999999999977796e-01  2.50000000000000000000e-01  6.30008059654796559457e-01  2.86956802538762545396e-05 1
3.56250000000000011102e-01  2.50000000000000000000e-01  6.36188910089802384107e-01  2.92029244833846846063e-05 1
3.62499999999999988898e-01  2.50000000000000000000e-01  6.42124495094772984594e-01  2.97014052155208929662e-05 1
3.68750000000000022204e-01  2.50000000000000000000e-01  6.47812526522773990401e-01  3.01907962025893539249e-05 1
3.75000000000000000000e-01  2.50000000000000000000e-01  6.53250811659950247900e-01  3.06707782379289639607e-05 1
3.81249999999999977796e-01  2.50000000000000000000e-01  6.58437254071034372416e-01  3.11410391039546041725e-05 1
3.87500000000000011102e-01  2.50000000000000000000e-01  6.63369854407761527781e-01  3.16012734931092609258e-05 1
3.93749999999999988898e-01  2.50000000000000000000e-01  6.68046711179823948790e-01  3.20511829576819451404e-05 1
4.00000000000000022204e-01  2.50000000000000000000e-01  6.72466021488129395145e-01  3.24904758278732330723e-05 1
4.06250000000000000000e-01  2.50000000000000000000e-01  6.76626081720014038723e-01  3.29188671622793194160e-05 1
4.12499999999999977796e-01  2.50000000000000000000e-01  6.80525288206196177221e-01  3.33360786798353458948e-05 1
4.18750000000000011102e-01  2.50000000000000000000e-01  6.84162137839189665733e-01  3.37418386984200679990e-05 1
4.24999999999999988898e-01  2.50000000000000000000e-01  6.87535228652947361105e-01  3.41358820731274548166e-05 1
4.31250000000000022204e-01  2.50000000000000000000e-01  6.90643260363506428234e-01  3.45179501369807795186e-05 1
4.37500000000000000000e-01  2.50000000000000000000e-01  6.93485034870434335907e-01  3.48877906393152414921e-05 1
4.43749999999999977796e-01  2.50000000000000000000e-01  6.96059456718882030302e-01  3.52451576808299193999e-05 1
4.50000000000000011102e-01  2.50000000000000000000e-01  6.98365533522050330184e-01  3.55898116599639990909e-05 1
4.56249999999999988898e-01  2.50000000000000000000e-01  7.00402376343933652514e-01  3.59215192056172583079e-05 1
4.62500000000000022204e-01  2.50000000000000000000e-01  7.02169200042179086907e-01  3.62400531103146406053e-05 1
4.68750000000000000000e-01  2.50000000000000000000e-01  7.03665323570907830231e-01  3.65451922832438214073e-05 1
4.74999999999999977796e-01  2.50000000000000000000e-01  7.04890170243442804043e-01  3.68367216644349682042e-05 1
4.81250000000000011102e-01  2.50000000000000000000e-01  7.05843267954760600347e-01  3.71144321785754627285e-05 1
4.87499999999999988898e-01  2.50000000000000000000e-01  7.06524249363659428980e-01  3.73781206540746424594e-05 1
4.93750000000000022204e-01  2.50000000000000000000e-01  7.06932852034510061934e-01  3.76275897672195824839e-05 1
5.00000000000000000000e-01  2.50000000000000000000e-01  7.07068918538585888811e-01  3.78626479615729039097e-05 1
5.06249999999999977796e-01  2.50000000000000000000e-01  7.06932396514893257589e-01  3.80831093840239276460e-05 1
5.12499999999999955591e-01  2.50000000000000000000e-01  7.06523338690503543980e-01  3.82887938099596425445e-05 1
5.18750000000000044409e-01  2.50000000000000000000e-01  7.05841902860376402273e-01  3.84795265627735361136e-05 1
5.25000000000000022204e-01  2.50000000000000000000e-01  7.04888351826665982003e-01  3.86551384412570087079e-05 1
5.31250000000000000000e-01  2.50000000000000000000e-01  7.03663053297549190290e-01  3.88154656419947841073e-05 1
5.37499999999999977796e-01  2.50000000000000000000e-01  7.02166479745626515019e-01  3.89603496628865286766e-05 1
5.43749999999999955591e-01  2.50000000000000000000e-01  7.00399208225905400838e-01  3.90896372338689346293e-05 1
5.50000000000000044409e-01  2.50000000000000000000e-01  6.98361920153501181119e-01  3.92031802090020420337e-05 1
5.56250000000000022204e-01  2.50000000000000000000e-01  6.96055401041061228007e-01  3.93008355016322141751e-05 1
5.62500000000000000000e-01  2.50000000000000000000e-01  6.93480540196117933860e-01  3.93824649557172890013e-05 1
5.68749999999999977796e-01  2.50000000000000000000e-01  6.90638330378371856355e-01  3.94479352715526587758e-05 1
5.74999999999999955591e-01  2.50000000000000000000e-01  6.87529867417126516749e-01  3.94971178939718114975e-05 1
5.81250000000000044409e-01  2.50000000000000000000e-01  6.84156349788986095639e-01  3.95298889019901622532e-05 1
5.87500000000000022204e-01  2.50000000000000000000e-01  6.80519078155967793720e-01  3.95461289082188471866e-05 1
5.93750000000000000000e-01  2.50000000000000000000e-01  6.76619454864240577052e-01  3.95457229357409900672e-05 1
5.99999999999999977796e-01  2.50000000000000000000e-01  6.72458983403654508848e-01  3.95285603027595300318e-05 1
6.06249999999999955591e-01  2.50000000000000000000e-01  6.68039267828285709960e-01  3.94945344960317967775e-05 1
6.12500000000000044409e-01  2.50000000000000000000e-01  6.63362012138210110912e-01  3.94435430444151080565e-05 1
6.18750000000000022204e-01  2.50000000000000000000e-01  6.58429019622746691809e-01  3.93754873917462333566e-05 1
6.25000000000000000000e-01  2.50000000000000000000e-01  6.53242192165437440821e-01  3.92902727507360438608e-05 1
6.31249999999999977796e-01  2.50000000000000000000e-01  6.47803529511013054254e-01  3.91878079635255005542e-05 1
6.37499999999999955591e-01  2.50000000000000000000e-01  6.42115128494637588119e-01  3.90680053510283897822e-05 1
6.43750000000000044409e-01  2.50000000000000000000e-01  6.36179182233713280681e-01  3.89307805723770883333e-05 1
6.50000000000000022204e-01  2.50000000000000000000e-01  6.29997979282602371676e-01  3.87760524480640356160e-05 1
6.56250000000000000000e-01  2.50000000000000000000e-01  6.23573902750529263095e-01  3.86037428062868670509e-05 1
6.62499999999999977796e-01  2.50000000000000000000e-01  6.16909429383041940653e-01  3.84137763188574510309e-05 1
6.68749999999999955591e-01  2.50000000000000000000e-01  6.10007128607392701269e-01  3.82060803162387330190e-05 1
6.75000000000000044409e-01  2.50000000000000000000e-01  6.02869661542179469116e-01  3.79805846115743861446e-05 1
6.81250000000000022204e-01  2.50000000000000000000e-01  5.95499779971652154487e-01  3.77372213093973840614e-05 1
6.87500000000000000000e-01  2.50000000000000000000e-01  5.87900325285049651924e-01  3.74759246297706738460e-05 1
6.93749999999999977796e-01  2.50000000000000000000e-01  5.80074227381433105144e-01  3.71966306900173293570e-05 1
6.99999999999999955591e-01  2.50000000000000000000e-01  5.72024503540372264432e-01  3.68992773119858341602e-05 1
7.06250000000000044409e-01  2.50000000000000000000e-01  5.63754257258960111976e-01  3.65838038124399744788e-05 1
7.12500000000000022204e-01  2.50000000000000000000e-01  5.55266677055586188594e-01  3.62501507956691781942e-05 1
7.18750000000000000000e-01  2.50000000000000000000e-01  5.46565035240962227014e-01  3.58982599165669213903e-05 1
7.24999999999999977796e-01  2.50000000000000000000e-01  5.37652686656820866240e-01  3.55280736655805284840e-05 1
7.31249999999999955591e-01  2.50000000000000000000e-01  5.28533067382805921142e-01  3.51395351466665673001e-05 1
7.37500000000000044409e-01  2.50000000000000000000e-01  5.19209693412070572016e-01  3.47325878250481778764e-05 1
7.43750000000000022204e-01  2.50000000000000000000e-01  5.09686159296046548128e-01  3.43071753000634416253e-05 1
7.50000000000000000000e-01  2.50000000000000000000e-01  4.99966136758942636398e-01  3.38632410573636022377e-05 1
7.56249999999999977796e-01  2.50000000000000000000e-01  4.90053373282497650720e-01  3.34007282205561750743e-05 1
7.62499999999999955591e-01  2.50000000000000000000e-01  4.79951690661522212267e-01  3.29195793050685026060e-05 1
7.68750000000000044409e-01  2.50000000000000000000e-01  4.69664983530810320467e-01  3.24197359529154738311e-05 1
7.75000000000000022204e-01  2.50000000000000000000e-01  4.59197217863946238747e-01  3.19011386953338416106e-05 1
7.81250000000000000000e-01  2.50000000000000000000e-01  4.48552429444640021750e-01  3.13637266780575352243e-05 1
7.87499999999999977796e-01  2.50000000000000000000e-01  4.37734722311130475259e-01  3.08074374139599704847e-05 1
7.93749999999999955591e-01  2.50000000000000000000e-01  4.26748267174288209436e-01  3.02322065164339903731e-05 1
8.00000000000000044409e-01  2.50000000000000000000e-01  4.15597299809996212350e-01  2.96379674572522233689e-05 1
8.06250000000000022204e-01  2.50000000000000000000e-01  4.04286119426469581217e-01  2.90246512989478233635e-05 1
8.12500000000000000000e-01  2.50000000000000000000e-01  3.92819087007099720932e-01  2.83921864512870492092e-05 1
8.18749999999999977796e-01  2.50000000000000000000e-01  3.81200623629487200805e-01  2.77404984237450413787e-05 1
8.24999999999999955591e-01  2.50000000000000000000e-01  3.69435208761298650160e-01  2.70695095869188939730e-05 1
8.31250000000000044409e-01  2.50000000000000000000e-01  3.57527378533608941602e-01  2.63791389419343325073e-05 1
8.37500000000000022204e-01  2.50000000000000000000e-01  3.45481723992394074152e-01  2.56693018923503935014e-05 1
8.43750000000000000000e-01  2.50000000000000000000e-01  3.33302889328827012250e-01  2.49399100463731926425e-05 1
8.49999999999999977796e-01  2.50000000000000000000e-01  3.20995570089096404764e-01  2.41908710066907062242e-05 1
8.56249999999999955591e-01  2.50000000000000000000e-01  3.08564511364399163273e-01  2.34220881933366875671e-05 1
8.62500000000000044409e-01  2.50000000000000000000e-01  2.96014505961819052171e-01  2.26334606764355683595e-05 1
8.68750000000000022204e-01  2.50000000000000000000e-01  2.83350392556797614496e-01  2.18248830294864859525e-05 1
8.75000000000000000000e-01  2.50000000000000000000e-01  2.70577053827893376781e-01  2.09962452051848380563e-05 1
8.81249999999999977796e-01  2.50000000000000000000e-01  2.57699414574566187941e-01  2.01474324312278518789e-05 1
8.87499999999999955591e-01  2.50000000000000000000e-01  2.44722439818695208791e-01  1.92783251315997716802e-05 1
8.93750000000000044409e-01  2.50000000000000000000e-01  2.31651132890562966304e-01  1.83887988765563115123e-05 1
9.00000000000000022204e-01  2.50000000000000000000e-01  2.18490533500044298298e-01  1.74787243662766211827e-05 1
9.06250000000000000000e-01  2.50000000000000000000e-01  2.05245715793749172740e-01  1.65479674295032630482e-05 1
9.12499999999999977796e-01  2.50000000000000000000e-01  1.91921786398848021049e-01  1.55963890732802035188e-05 1
9.18749999999999955591e-01  2.50000000000000000000e-01  1.78523882454350080184e-01  1.46238455536740197260e-05 1
9.25000000000000044409e-01  2.50000000000000000000e-01  1.65057169630583339126e-01  1.36301884884060253711e-05 1
9.31250000000000022204e-01  2.50000000000000000000e-01  1.51526840137650387064e-01  1.26152649927435689392e-05 1
9.37500000000000000000e-01  2.50000000000000000000e-01  1.37938110723605122931e-01  1.15789178666003689244e-05 1
9.43749999999999977796e-01  2.50000000000000000000e-01  1.24296220663145412511e-01  1.05209858054094995694e-05 1
9.49999999999999955591e-01  2.50000000000000000000e-01  1.10606429737594089135e-01  9.44130364312345538025e-06 1
9.56250000000000044409e-01  2.50000000000000000000e-01  9.68740162069246929510e-02  8.33970264316197251731e-06 1
9.62500000000000022204e-01  2.50000000000000000000e-01  8.31042747746537080467e-02  7.21601080168332575937e-06 1
9.68750000000000000000e-01  2.50000000000000000000e-01  6.93025145463482400432e-02  6.07005319763764816798e-06 1
9.74999999999999977796e-01  2.50000000000000000000e-01  5.54740569825749665900e-02  4.90165234875994393349e-06 1
9.81249999999999955591e-01  2.50000000000000000000e-01  4.16242338470415931817e-02  3.71062861625331974480e-06 1
9.87500000000000044409e-01  2.50000000000000000000e-01  2.77583851507630617605e-02  2.49680060876097953404e-06 1
9.93750000000000022204e-01  2.50000000000000000000e-01  1.38818570930360329213e-02  1.25998560559364980449e-06 1
1.00000000000000000000e+00  2.50000000000000000000e-01  0.00000000000000000000e+00  8.65956056235493162558e-17 1
0.00000000000000000000e+00  2.56249999999999977796e-01  0.00000000000000000000e+00  0.00000000000000000000e+00 1
6.25000000000000034694e-03  2.56249999999999977796e-01  1.41527692632857880761e-02  2.48563517100605646526e-07 1
1.25000000000000006939e-02  2.56249999999999977796e-01  2.83000601237966796508e-02  5.19272021857336563144e-07 1
1.87499999999999993061e-02  2.56249999999999977796e-01  4.24364191732419307468e-02  8.11379509003951060464e-07 1
2.50000000000000013878e-02  2.56249999999999977796e-01  5.65563972082600355251e-02  1.12414121559295532293e-06 1
3.12500000000000000000e-02  2.56249999999999977796e-01  7.06545513308630551697e-02  1.45681423541210719463e-06 1
3.74999999999999986122e-02  2.56249999999999977796e-01  8.47254470464578884892e-02  1.80865812486608046328e-06 1
4.37499999999999972244e-02  2.56249999999999977796e-01  9.87636603586413974742e-02  2.17893549447900625182e-06 1
5.00000000000000027756e-02  2.56249999999999977796e-01  1.12763779859963719776e-01  2.56691258369856623034e-06 1
5.62500000000000013878e-02  2.56249999999999977796e-01  1.26720408817859786499e-01  2.97185981279479705108e-06 1
6.25000000000000000000e-02  2.56249999999999977796e-01  1.40628167254942010311e-01  3.39305231464304135613e-06 1
6.87500000000000055511e-02  2.56249999999999977796e-01  1.54481694022862686699e-01  3.82977043550392082238e-06 1
7.49999999999999972244e-02  2.56249999999999977796e-01  1.68275648868938143554e-01  4.28130021279393702116e-06 1
8.12500000000000027756e-02  2.56249999999999977796e-01  1.82004714494752223297e-01  4.74693381638524591892e-06 1
8.74999999999999944489e-02  2.56249999999999977796e-01  1.95663598605931521313e-01  5.22596996554991477524e-06 1
9.37500000000000000000e-02  2.56249999999999977796e-01  2.09247035952318916063e-01  5.71771430618595033479e-06 1
1.00000000000000005551e-01  2.56249999999999977796e-01  2.22749790357745364178e-01  6.22147976106490752102e-06 1
1.06249999999999997224e-01  2.56249999999999977796e-01  2.36166656738624691769e-01  6.73658684513522842963e-06 1
1.12500000000000002776e-01  2.56249999999999977796e-01  2.49492463110592338493e-01  7.26236394787971306641e-06 1
1.18749999999999994449e-01  2.56249999999999977796e-01  2.62722072582408150421e-01  7.79814758755659198641e-06 1
1.25000000000000000000e-01  2.56249999999999977796e-01  2.75850385336364134492e-01  8.34328262894201699851e-06 1
1.31250000000000005551e-01  2.56249999999999977796e-01  2.88872340594421239679e-01  8.89712247559293345489e-06 1
1.37500000000000011102e-01  2.56249999999999977796e-01  3.01782918569320934843e-01  9.45902923410457674436e-06 1
1.43749999999999988898e-01  2.56249999999999977796e-01  3.14577142399919351679e-01  1.00283738489470586330e-05 1
1.49999999999999994449e-01  2.56249999999999977796e-01  3.27250080069995230581e-01  1.06045362125439801559e-05 1
1.56250000000000000000e-01  2.56249999999999977796e-01  3.39796846309781186424e-01  1.11869052584201433831e-05 1
1.62500000000000005551e-01  2.56249999999999977796e-01  3.52212604479507807032e-01  1.17748790175453699192e-05 1
1.68750000000000011102e-01  2.56249999999999977796e-01  3.64492568434196084759e-01  1.23678646747893417057e-05 1
1.74999999999999988898e-01  2.56249999999999977796e-01  3.76632004369016892831e-01  1.29652785875178366837e-05 1
1.81249999999999994449e-01  2.56249999999999977796e-01  3.88626232644469660205e-01  1.35665463044110090607e-05 1
1.87500000000000000000e-01  2.56249999999999977796e-01  4.00470629590706395096e-01  1.41711025524737799230e-05 1
1.93750000000000005551e-01  2.56249999999999977796e-01  4.12160629290267921387e-01  1.47783912318177890199e-05 1
2.00000000000000011102e-01  2.56249999999999977796e-01  4.23691725338585789551e-01  1.53878653759709216331e-05 1
2.06249999999999988898e-01  2.56249999999999977796e-01  4.35059472581530659596e-01  1.59989871193477739553e-05 1
2.12499999999999994449e-01  2.56249999999999977796e-01  4.46259488829362283013e-01  1.66112276459573493526e-05 1
2.18750000000000000000e-01  2.56249999999999977796e-01  4.57287456546406401170e-01  1.72240671342249740405e-05 1
2.25000000000000005551e-01  2.56249999999999977796e-01  4.68139124515807525384e-01  1.78369946963186087885e-05 1
2.31250000000000011102e-01  2.56249999999999977796e-01  4.78810309478722051502e-01  1.84495083075941757045e-05 1
2.37499999999999988898e-01  2.56249999999999977796e-01  4.89296897747308889848e-01  1.90611147348196396933e-05 1
2.43749999999999994449e-01  2.56249999999999977796e-01  4.99594846790899660416e-01  1.96713294617345546555e-05 1
2.50000000000000000000e-01  2.56249999999999977796e-01  5.09700186794736831430e-01  2.02796766096691172265e-05 1
2.56249999999999977796e-01  2.56249999999999977796e-01  5.19609022190678615516e-01  2.08856888556097075593e-05 1
2.62500000000000011102e-01  2.56249999999999977796e-01  5.29317533159275543930e-01  2.14889073513191419806e-05 1
2.68749999999999988898e-01  2.56249999999999977796e-01  5.38821977102645677249e-01  2.20888816381270558509e-05 1
2.75000000000000022204e-01  2.56249999999999977796e-01  5.48118690087576410086e-01  2.26851695618313087266e-05 1
2.81250000000000000000e-01  2.56249999999999977796e-01  5.57204088258284935264e-01  2.32773371978689525008e-05 1
2.87499999999999977796e-01  2.56249999999999977796e-01  5.66074669218325166042e-01  2.38649587571693189147e-05 1
2.93750000000000011102e-01  2.56249999999999977796e-01  5.74727013381071016873e-01  2.44476165074392071119e-05 1
2.99999999999999988898e-01  2.56249999999999977796e-01  5.83157785288270669177e-01  2.50249006951142050070e-05 1
3.06250000000000022204e-01  2.56249999999999977796e-01  5.91363734896174886302e-01  2.55964094580951595503e-05 1
3.12500000000000000000e-01  2.56249999999999977796e-01  5.99341698828718572045e-01  2.61617487525844794050e-05 1
3.18749999999999977796e-01  2.56249999999999977796e-01  6.07088601597293053835e-01  2.67205322747043894083e-05 1
3.25000000000000011102e-01  2.56249999999999977796e-01  6.14601456786642130758e-01  2.72723813730113562315e-05 1
3.31249999999999988898e-01  2.56249999999999977796e-01  6.21877368206382619142e-01  2.78169249926518702409e-05 1
3.37500000000000022204e-01  2.56249999999999977796e-01  6.28913531007771253734e-01  2.83537995897642502996e-05 1
3.43750000000000000000e-01  2.56249999999999977796e-01  6.35707232765239660388e-01  2.88826490575377903269e-05 1
3.49999999999999977796e-01  2.56249999999999977796e-01  6.42255854522286728781e-01  2.94031246643733368273e-05 1
3.56250000000000011102e-01  2.56249999999999977796e-01  6.48556871801340695249e-01  2.99148849824959484067e-05 1
3.62499999999999988898e-01  2.56249999999999977796e-01  6.54607855577195585361e-01  3.04175958181218675236e-05 1
3.68750000000000022204e-01  2.56249999999999977796e-01  6.60406473213638212094e-01  3.09109301487309195977e-05 1
3.75000000000000000000e-01  2.56249999999999977796e-01  6.65950489362918118807e-01  3.13945680540106408785e-05 1
3.81249999999999977796e-01  2.56249999999999977796e-01  6.71237766827695203631e-01  3.18681966620104617505e-05 1
3.87500000000000011102e-01  2.56249999999999977796e-01  6.76266267385160158021e-01  3.23315100787535669724e-05 1
3.93749999999999988898e-01  2.56249999999999977796e-01  6.81034052572986770002e-01  3.27842093271746293226e-05 1
4.00000000000000022204e-01  2.56249999999999977796e-01  6.85539284436820439694e-01  3.32260022889441231086e-05 1
4.06250000000000000000e-01  2.56249999999999977796e-01  6.89780226239015248346e-01  3.36566036460705930722e-05 1
4.12499999999999977796e-01  2.56249999999999977796e-01  6.93755243128349907700e-01  3.40757348198383880344e-05 1
4.18750000000000011102e-01  2.56249999999999977796e-01  6.97462802770460355006e-01  3.44831239125209521035e-05 1
4.24999999999999988898e-01  2.56249999999999977796e-01  7.00901475938749851657e-01  3.48785056460965137148e-05 1
4.31250000000000022204e-01  2.56249999999999977796e-01  7.04069937065537776455e-01  3.52616213094014696594e-05 1
4.37500000000000000000e-01  2.56249999999999977796e-01  7.06966964753254933918e-01  3.56322186944035834699e-05 1
4.43749999999999977796e-01  2.56249999999999977796e-01  7.09591442245470771510e-01  3.59900520382483435355e-05 1
4.50000000000000011102e-01  2.56249999999999977796e-01  7.11942357857573870916e-01  3.63348819686359902903e-05 1
4.56249999999999988898e-01  2.56249999999999977796e-01  7.14018805366950837232e-01  3.66664754397616476922e-05 1
4.62500000000000022204e-01  2.56249999999999977796e-01  7.15819984362508598963e-01  3.69846056675893208876e-05 1
4.68750000000000000000e-01  2.56249999999999977796e-01  7.17345200553384354514e-01  3.72890520797808378006e-05 1
4.74999999999999977796e-01  2.56249999999999977796e-01  7.18593866036766448779e-01  3.75796002427541964153e-05 1
4.81250000000000011102e-01  2.56249999999999977796e-01  7.19565499524682961052e-01  3.78560418032858336801e-05 1
4.87499999999999988898e-01  2.56249999999999977796e-01  7.20259726529690835761e-01  3.81181744253389354071e-05 1
4.93750000000000022204e-01  2.56249999999999977796e-01  7.20676279509402051282e-01  3.83658017143462259924e-05 1
5.00000000000000000000e-01  2.56249999999999977796e-01  7.20814997969755788532e-01  3.85987331629200625116e-05 1
5.06249999999999977796e-01  2.56249999999999977796e-01  7.20675828527053474737e-01  3.88167840629227711702e-05 1
5.12499999999999955591e-01  2.56249999999999977796e-01  7.20258824928667107379e-01  3.90197754490673176520e-05 1
5.18750000000000044409e-01  2.56249999999999977796e-01  7.19564148032465711324e-01  3.92075340205355615808e-05 1
5.25000000000000022204e-01  2.56249999999999977796e-01  7.18592065744954044959e-01  3.93798920551580167171e-05 1
5.31250000000000000000e-01  2.56249999999999977796e-01  7.17342952918120890793e-01  3.95366873433555809925e-05 1
5.37499999999999977796e-01  2.56249999999999977796e-01  7.15817291205081307481e-01  3.96777630948808024414e-05 1
5.43749999999999955591e-01  2.56249999999999977796e-01  7.14015668874528608434e-01  3.98029678619904458969e-05 1
5.50000000000000044409e-01  2.56249999999999977796e-01  7.11938780584099539794e-01  3.99121554428560898486e-05 1
5.56250000000000022204e-01  2.56249999999999977796e-01  7.09587427112710944499e-01  4.00051847980753549905e-05 1
5.62500000000000000000e-01  2.56249999999999977796e-01  7.06962515051990925130e-01  4.00819199584123708746e-05 1
5.68749999999999977796e-01  2.56249999999999977796e-01  7.04065056456928073381e-01  4.01422299191045439670e-05 1
5.74999999999999955591e-01  2.56249999999999977796e-01  7.00896168455861223734e-01  4.01859885347244372156e-05 1
5.81250000000000044409e-01  2.56249999999999977796e-01  6.97457072819941070740e-01  4.02130744318052180120e-05 1
5.87500000000000022204e-01  2.56249999999999977796e-01  6.93749095492289691300e-01  4.02233708800547873352e-05 1
5.93750000000000000000e-01  2.56249999999999977796e-01  6.89773666076970659589e-01  4.02167656906593506960e-05 1
5.99999999999999977796e-01  2.56249999999999977796e-01  6.85532317288015002887e-01  4.01931510944919523354e-05 1
6.06249999999999955591e-01  2.56249999999999977796e-01  6.81026684358692513399e-01  4.01524236214312324478e-05 1
6.12500000000000044409e-01  2.56249999999999977796e-01  6.76258504411264227407e-01  4.00944839745731584912e-05 1
6.18750000000000022204e-01  2.56249999999999977796e-01  6.71229615787462652321e-01  4.00192368946727938805e-05 1
6.25000000000000000000e-01  2.56249999999999977796e-01  6.65941957339936441151e-01  3.99265910356882969268e-05 1
6.31249999999999977796e-01  2.56249999999999977796e-01  6.60397567684978148428e-01  3.98164588087945858774e-05 1
6.37499999999999955591e-01  2.56249999999999977796e-01  6.54598584416764439631e-01  3.96887562494896428689e-05 1