Titile = 'Poisson'  
VARIABLES = X, Y, U, Error, Rank 
zone N= 966, E = 1600
DATAPACKING=POINT, ZONETYPE=FETRIANGLE
0.00000000000000000000e+00  4.68750000000000000000e-01  0.00000000000000000000e+00  0.00000000000000000000e+00 15
6.25000000000000034694e-03  4.68750000000000000000e-01  1.95402280429470449896e-02  1.07717795069794952667e-06 15
1.25000000000000006939e-02  4.68750000000000000000e-01  3.90728701337983083675e-02  2.10111840880794487063e-06 15
1.87499999999999993061e-02  4.68750000000000000000e-01  5.85883755519585117111e-02  1.05091137738572149019e-06 15
2.50000000000000013878e-02  4.68750000000000000000e-01  7.80812940360639112791e-02  2.99200816900047072977e-10 15
3.12500000000000000000e-02  4.68750000000000000000e-01  9.75441106949720415642e-02  1.05031309208247769504e-06 15
3.74999999999999986122e-02  4.68750000000000000000e-01  1.16969322242371762122e-01  2.10052046775710543614e-06 15
4.37499999999999972244e-02  4.68750000000000000000e-01  1.36349439889428769579e-01  3.14991805822062431730e-06 15
5.00000000000000027756e-02  4.68750000000000000000e-01  1.55676992231888605689e-01  4.19810128488018463599e-06 15
5.62500000000000013878e-02  4.68750000000000000000e-01  1.74944528130381443676e-01  5.24466607815243790469e-06 15
6.25000000000000000000e-02  4.68750000000000000000e-01  1.94144619583077021607e-01  6.28920893441797801415e-06 15
6.87500000000000055511e-02  4.68750000000000000000e-01  2.13269864589191004978e-01  7.33132720154294759141e-06 15
7.49999999999999972244e-02  4.68750000000000000000e-01  2.32312890002748767548e-01  8.37061908195990689308e-06 15
8.12500000000000027756e-02  4.68750000000000000000e-01  2.51266354374915235059e-01  9.40668394666666074500e-06 15
8.74999999999999944489e-02  4.68750000000000000000e-01  2.70122950784411397507e-01  1.04391223406663513629e-05 15
9.37500000000000000000e-02  4.68750000000000000000e-01  2.88875409654344161847e-01  1.14675362647975731534e-05 15
1.00000000000000005551e-01  4.68750000000000000000e-01  3.07516501554857768497e-01  1.24915292380456399712e-05 15
1.06249999999999997224e-01  4.68750000000000000000e-01  3.26039039990190182561e-01  1.35107064765382922644e-05 15
1.12500000000000002776e-01  4.68750000000000000000e-01  3.44435884169146444567e-01  1.45246751035443821820e-05 15
1.18749999999999994449e-01  4.68750000000000000000e-01  3.62699941758147959003e-01  1.55330441625189941135e-05 15
1.25000000000000000000e-01  4.68750000000000000000e-01  3.80824171615279816194e-01  1.65354249501703520764e-05 15
1.31250000000000005551e-01  4.68750000000000000000e-01  3.98801586504935079436e-01  1.75314310160712416575e-05 15
1.37500000000000011102e-01  4.68750000000000000000e-01  4.16625255791452930865e-01  1.85206783861469048702e-05 15
1.43749999999999988898e-01  4.68750000000000000000e-01  4.34288308111044740745e-01  1.95027856760843221196e-05 15
1.49999999999999994449e-01  4.68750000000000000000e-01  4.51783934020792643516e-01  2.04773742822350612869e-05 15
1.56250000000000000000e-01  4.68750000000000000000e-01  4.69105388623884012045e-01  2.14440684619399135613e-05 15
1.62500000000000005551e-01  4.68750000000000000000e-01  4.86245994169835438203e-01  2.24024955410850878934e-05 15
1.68750000000000011102e-01  4.68750000000000000000e-01  5.03199142628955042866e-01  2.33522859954815587002e-05 15
1.74999999999999988898e-01  4.68750000000000000000e-01  5.19958298239607263902e-01  2.42930738494351317058e-05 15
1.81249999999999994449e-01  4.68750000000000000000e-01  5.36517000028670754119e-01  2.52244960194936140851e-05 15
1.87500000000000000000e-01  4.68750000000000000000e-01  5.52868864300973150705e-01  2.61461938483309452863e-05 15
1.93750000000000005551e-01  4.68750000000000000000e-01  5.69007587101756362458e-01  2.70578118128916855767e-05 15
2.00000000000000011102e-01  4.68750000000000000000e-01  5.84926946646296297416e-01  2.79589983368522254636e-05 15
2.06249999999999988898e-01  4.68750000000000000000e-01  6.00620805718068861978e-01  2.88494063763744534867e-05 15
2.12499999999999994449e-01  4.68750000000000000000e-01  6.16083114036156787030e-01  2.97286921612238685952e-05 15
2.18750000000000000000e-01  4.68750000000000000000e-01  6.31307910585969356276e-01  3.05965171054634055281e-05 15
2.25000000000000005551e-01  4.68750000000000000000e-01  6.46289325918729007370e-01  3.14525465364701162230e-05 15
2.31250000000000011102e-01  4.68750000000000000000e-01  6.61021584413726048801e-01  3.22964503532974234190e-05 15
2.37499999999999988898e-01  4.68750000000000000000e-01  6.75499006504873711343e-01  3.31279032103060089298e-05 15
2.43749999999999994449e-01  4.68750000000000000000e-01  6.89716010870155216139e-01  3.39465847771780460107e-05 15
2.50000000000000000000e-01  4.68750000000000000000e-01  7.03667116583951868236e-01  3.47521792392058159749e-05 15
2.56249999999999977796e-01  4.68750000000000000000e-01  7.17346945229567767299e-01  3.55443758963680522811e-05 15
2.62500000000000011102e-01  4.68750000000000000000e-01  7.30750222972081808770e-01  3.63228699126194598534e-05 15
2.68749999999999988898e-01  4.68750000000000000000e-01  7.43871782593594432775e-01  3.70873603500188053772e-05 15
2.75000000000000022204e-01  4.68750000000000000000e-01  7.56706565482384241328e-01  3.78375531905339457239e-05 15
2.81250000000000000000e-01  4.68750000000000000000e-01  7.69249623585780417656e-01  3.85731587659865482465e-05 15
2.87499999999999977796e-01  4.68750000000000000000e-01  7.81496121315846004052e-01  3.92938937565645574068e-05 15
2.93750000000000011102e-01  4.68750000000000000000e-01  7.93441337414789726878e-01  3.99994800990288723597e-05 15
2.99999999999999988898e-01  4.68750000000000000000e-01  8.05080666774163233868e-01  4.06896460309891239149e-05 15
3.06250000000000022204e-01  4.68750000000000000000e-01  8.16409622211225816102e-01  4.13641251882923555172e-05 15
3.12500000000000000000e-01  4.68750000000000000000e-01  8.27423836197581086260e-01  4.20226579648241838072e-05 15
3.18749999999999977796e-01  4.68750000000000000000e-01  8.38119062544816162408e-01  4.26649897400377398071e-05 15
3.25000000000000011102e-01  4.68750000000000000000e-01  8.48491178038891513680e-01  4.32908735726877935690e-05 15
3.31249999999999988898e-01  4.68750000000000000000e-01  8.58536184031852167564e-01  4.39000681620171917530e-05 15
3.37500000000000022204e-01  4.68750000000000000000e-01  8.68250207983334187922e-01  4.44923379904205162916e-05 15
3.43750000000000000000e-01  4.68750000000000000000e-01  8.77629504951301209204e-01  4.50674556146113403088e-05 15
3.49999999999999977796e-01  4.68750000000000000000e-01  8.86670459038748970393e-01  4.56251987959177540688e-05 15
3.56250000000000011102e-01  4.68750000000000000000e-01  8.95369584786021133205e-01  4.61653522670912863646e-05 15
3.62499999999999988898e-01  4.68750000000000000000e-01  9.03723528513685980812e-01  4.66877086487960113459e-05 15
3.68750000000000022204e-01  4.68750000000000000000e-01  9.11729069618578136236e-01  4.71920653971613646149e-05 15
3.75000000000000000000e-01  4.68750000000000000000e-01  9.19383121811159553793e-01  4.76782291223276644132e-05 15
3.81249999999999977796e-01  4.68750000000000000000e-01  9.26682734309011824081e-01  4.81460119955423593296e-05 15
3.87500000000000011102e-01  4.68750000000000000000e-01  9.33625092972810266545e-01  4.85952334303707544905e-05 15
3.93749999999999988898e-01  4.68750000000000000000e-01  9.40207521390504008529e-01  4.90257208748401396292e-05 15
4.00000000000000022204e-01  4.68750000000000000000e-01  9.46427481911693346817e-01  4.94373073107734484211e-05 15
4.06250000000000000000e-01  4.68750000000000000000e-01  9.52282576621941156958e-01  4.98298353174275732158e-05 15
4.12499999999999977796e-01  4.68750000000000000000e-01  9.57770548271409394303e-01  5.02031529381330443584e-05 15
4.18750000000000011102e-01  4.68750000000000000000e-01  9.62889281142874975394e-01  5.05571159358231270176e-05 15
4.24999999999999988898e-01  4.68750000000000000000e-01  9.67636801866676554695e-01  5.08915885509830800970e-05 15
4.31250000000000022204e-01  4.68750000000000000000e-01  9.72011280183718628933e-01  5.12064413212831581745e-05 15
4.37500000000000000000e-01  4.68750000000000000000e-01  9.76011029649350270176e-01  5.15015528524953580813e-05 15
4.43749999999999977796e-01  4.68750000000000000000e-01  9.79634508283477090096e-01  5.17768099104198853411e-05 15
4.50000000000000011102e-01  4.68750000000000000000e-01  9.82880319166712257406e-01  5.20321057755346316753e-05 15
4.56249999999999988898e-01  4.68750000000000000000e-01  9.85747210976736565335e-01  5.22673424631081573466e-05 15
4.62500000000000022204e-01  4.68750000000000000000e-01  9.88234078472551513705e-01  5.24824289170888746980e-05 15
4.68750000000000000000e-01  4.68750000000000000000e-01  9.90339962918880600817e-01  5.26772827345034500013e-05 15
4.74999999999999977796e-01  4.68750000000000000000e-01  9.92064052458197398465e-01  5.28518277808087688641e-05 15
4.81250000000000011102e-01  4.68750000000000000000e-01  9.93405682419991720167e-01  5.30059979385599788770e-05 15
4.87499999999999988898e-01  4.68750000000000000000e-01  9.94364335580737224163e-01  5.31397334092575945874e-05 15
4.93750000000000022204e-01  4.68750000000000000000e-01  9.94939642362051457347e-01  5.32529819755600541953e-05 15
5.00000000000000000000e-01  4.68750000000000000000e-01  9.95131380971171375371e-01  5.33457010254423380502e-05 15
5.06249999999999977796e-01  4.68750000000000000000e-01  9.94939477489864887438e-01  5.34178541621299629583e-05 15
5.12499999999999955591e-01  4.68750000000000000000e-01  9.94364005900660097304e-01  5.34694134863844539041e-05 15
5.18750000000000044409e-01  4.68750000000000000000e-01  9.93405188058494315051e-01  5.35003594359650946899e-05 15
5.25000000000000022204e-01  4.68750000000000000000e-01  9.92063393606098964383e-01  5.35106798792428506317e-05 15
5.31250000000000000000e-01  4.68750000000000000000e-01  9.90339139830278658572e-01  5.35003713365567179494e-05 15
5.37499999999999977796e-01  4.68750000000000000000e-01  9.88233091464567836582e-01  5.34694369007659986437e-05 15
5.43749999999999955591e-01  4.68750000000000000000e-01  9.85746060429965154093e-01  5.34178892345194000768e-05 15
5.50000000000000044409e-01  4.68750000000000000000e-01  9.82879005524382787229e-01  5.33457481048937864898e-05 15
5.56250000000000022204e-01  4.68750000000000000000e-01  9.79633032052648067278e-01  5.32530407394427029999e-05 15
5.62500000000000000000e-01  4.68750000000000000000e-01  9.76009391398438452825e-01  5.31398037643127096885e-05 15
5.68749999999999977796e-01  4.68750000000000000000e-01  9.72009480545243387262e-01  5.30060797965248298169e-05 15
5.74999999999999955591e-01  4.68750000000000000000e-01  9.67634841533331457875e-01  5.28519218961909231780e-05 15
5.81250000000000044409e-01  4.68750000000000000000e-01  9.62887160871597536094e-01  5.26773872132624276787e-05 15
5.87500000000000022204e-01  4.68750000000000000000e-01  9.57768268878368966845e-01  5.24825459785605019647e-05 15
5.93750000000000000000e-01  4.68750000000000000000e-01  9.52280138986652202604e-01  5.22674706063819272117e-05 15
5.99999999999999977796e-01  4.68750000000000000000e-01  9.46424886973887491415e-01  5.20322451167398725147e-05 15
6.06249999999999955591e-01  4.68750000000000000000e-01  9.40204770150060986644e-01  5.17769613179730470165e-05 15
6.12500000000000044409e-01  4.68750000000000000000e-01  9.33622186491158467803e-01  5.15017150820584745929e-05 15
6.18750000000000022204e-01  4.68750000000000000000e-01  9.26679673705735229561e-01  5.12066152722479017712e-05 15
6.25000000000000000000e-01  4.68750000000000000000e-01  9.19379908267128120869e-01  5.08917731537605888548e-05 15
6.31249999999999977796e-01  4.68750000000000000000e-01  9.11725704371648681956e-01  5.05573123266156443378e-05 15
6.37499999999999955591e-01  4.68750000000000000000e-01  9.03720012862355925876e-01  5.02033599790729923029e-05 15
6.43750000000000044409e-01  4.68750000000000000000e-01  8.95365920085013811125e-01  4.98300532743023438798e-05 15
6.50000000000000022204e-01  4.68750000000000000000e-01  8.86666646700785765489e-01  4.94375367592336800726e-05 15
6.56250000000000000000e-01  4.68750000000000000000e-01  8.77625546446797022426e-01  4.90259601189091398510e-05 15
6.62499999999999977796e-01  4.68750000000000000000e-01  8.68246104837201992943e-01  4.85954841228375400419e-05 15
6.68749999999999955591e-01  4.68750000000000000000e-01  8.58531937826945923398e-01  4.81462730684834028239e-05 15
6.75000000000000044409e-01  4.68750000000000000000e-01  8.48486790411679292490e-01  4.76785007850200059920e-05 15
6.81250000000000022204e-01  4.68750000000000000000e-01  8.38114535186993303562e-01  4.71923475630076083576e-05 15
6.87500000000000000000e-01  4.68750000000000000000e-01  8.27419170854478247534e-01  4.66880010678849544092e-05 15
6.93749999999999977796e-01  4.68750000000000000000e-01  8.16404820681452925157e-01  4.61656549611833000313e-05 15
6.99999999999999955591e-01  4.68750000000000000000e-01  8.05075730908861419977e-01  4.56255113328030148523e-05 15
7.06250000000000044409e-01  4.68750000000000000000e-01  7.93436269116437609128e-01  4.50677784511466228423e-05 15
7.12500000000000022204e-01  4.68750000000000000000e-01  7.81490922539222809817e-01  4.44926703797587919098e-05 15
7.18750000000000000000e-01  4.68750000000000000000e-01  7.69244296334020694061e-01  4.39004105258211652085e-05 15
7.24999999999999977796e-01  4.68750000000000000000e-01  7.56701111810522242251e-01  4.32912250525330222217e-05 15
7.31249999999999955591e-01  4.68750000000000000000e-01  7.43866204602718572580e-01  4.26653512262120671039e-05 15
7.37500000000000044409e-01  4.68750000000000000000e-01  7.30744522813941976835e-01  4.20230280523403720849e-05 15
7.43750000000000022204e-01  4.68750000000000000000e-01  7.17341125100643073331e-01  4.13645048212840649171e-05 15
7.50000000000000000000e-01  4.68750000000000000000e-01  7.03661178728592129339e-01  4.06900345990557354980e-05 15
7.56249999999999977796e-01  4.68750000000000000000e-01  6.89709957577497867476e-01  3.99998774345267094077e-05 15
7.62499999999999955591e-01  4.68750000000000000000e-01  6.75492840107895342605e-01  3.92943001890078136285e-05 15
7.68750000000000044409e-01  4.68750000000000000000e-01  6.61015307290773734827e-01  3.85735733053893525835e-05 15
7.75000000000000022204e-01  4.68750000000000000000e-01  6.46282940488767443377e-01  3.78379764981451316430e-05 15
7.81250000000000000000e-01  4.68750000000000000000e-01  6.31301419311456557537e-01  3.70877916182621447660e-05 15
7.87499999999999977796e-01  4.68750000000000000000e-01  6.16076519418934598349e-01  3.63233093836345943828e-05 15
7.93749999999999955591e-01  4.68750000000000000000e-01  6.00614110301098236278e-01  3.55448233471111763038e-05 15
8.00000000000000044409e-01  4.68750000000000000000e-01  5.84920153010526688853e-01  3.47526341065718114010e-05 15
8.06250000000000022204e-01  4.68750000000000000000e-01  5.69000697866101523559e-01  3.39470474677305844580e-05 15
8.12500000000000000000e-01  4.68750000000000000000e-01  5.52861882121870040763e-01  3.31283729514408875616e-05 15
8.18749999999999977796e-01  4.68750000000000000000e-01  5.36509927597198288396e-01  3.22969274921813820356e-05 15
8.24999999999999955591e-01  4.68750000000000000000e-01  5.19951138282852776129e-01  3.14530306040339269202e-05 15
8.31250000000000044409e-01  4.68750000000000000000e-01  5.03191897906947738228e-01  3.05970080027861968119e-05 15
8.37500000000000022204e-01  4.68750000000000000000e-01  4.86238667475712649235e-01  2.97291896638185448865e-05 15
8.43750000000000000000e-01  4.68750000000000000000e-01  4.69097982781944145003e-01  2.88499104020289998118e-05 15
8.49999999999999977796e-01  4.68750000000000000000e-01  4.51776451886451768658e-01  2.79595086232209411037e-05 15
8.56249999999999955591e-01  4.68750000000000000000e-01  4.34280752568677597125e-01  2.70583280436720308160e-05 15
8.62500000000000044409e-01  4.68750000000000000000e-01  4.16617629753760876365e-01  2.61467160780348706339e-05 15
8.68750000000000022204e-01  4.68750000000000000000e-01  3.98793892912236214165e-01  2.52250237151585565698e-05 15
8.75000000000000000000e-01  4.68750000000000000000e-01  3.80816413433120282139e-01  2.42936071098154293679e-05 15
8.81249999999999977796e-01  4.68750000000000000000e-01  3.62692121978017256723e-01  2.33528242932212748428e-05 15
8.87499999999999955591e-01  4.68750000000000000000e-01  3.44428005805157477770e-01  2.24030390928442457721e-05 15
8.93750000000000044409e-01  4.68750000000000000000e-01  3.26031106080049037921e-01  2.14446166175163988044e-05 15
9.00000000000000022204e-01  4.68750000000000000000e-01  3.07508515156967199289e-01  2.04779271287258701761e-05 15
9.06250000000000000000e-01  4.68750000000000000000e-01  2.88867373847707387124e-01  1.95033429016278070378e-05 15
9.12499999999999977796e-01  4.68750000000000000000e-01  2.70114868667022944848e-01  1.85212397294520769719e-05 15
9.18749999999999955591e-01  4.68750000000000000000e-01  2.51258229062377380636e-01  1.75319964847431286614e-05 15
9.25000000000000044409e-01  4.68750000000000000000e-01  2.32304724627842629214e-01  1.65359939882370188258e-05 15
9.31250000000000022204e-01  4.68750000000000000000e-01  2.13261662299521398412e-01  1.55336168711217581517e-05 15
9.37500000000000000000e-01  4.68750000000000000000e-01  1.94136383541002544018e-01  1.45252510092563902333e-05 15
9.43749999999999977796e-01  4.68750000000000000000e-01  1.74936261510962393073e-01  1.35112854974250851114e-05 15
9.49999999999999955591e-01  4.68750000000000000000e-01  1.55668698222024781685e-01  1.24921111488152103419e-05 15
9.56250000000000044409e-01  4.68750000000000000000e-01  1.36341121686777894118e-01  1.14681207091238412943e-05 15
9.62500000000000022204e-01  4.68750000000000000000e-01  1.16960983053561146106e-01  1.04397092782759770557e-05 15
9.68750000000000000000e-01  4.68750000000000000000e-01  9.75357537350726583325e-02  9.40727299168775399352e-06 15
9.74999999999999977796e-01  4.68750000000000000000e-01  7.80729225267304399738e-02  8.37121013277930536844e-06 15
9.81249999999999955591e-01  4.68750000000000000000e-01  5.85799927206470186225e-02  7.33191993455839519100e-06 15
9.87500000000000044409e-01  4.68750000000000000000e-01  3.90644792122031292436e-02  6.28980318626709555829e-06 15
9.93750000000000022204e-01  4.68750000000000000000e-01  1.95359789408650931508e-02  3.17192413148634222431e-06 15
1.00000000000000000000e+00  4.68750000000000000000e-01  0.00000000000000000000e+00  1.21874979007943944872e-16 15
0.00000000000000000000e+00  4.74999999999999977796e-01  0.00000000000000000000e+00  0.00000000000000000000e+00 15
6.25000000000000034694e-03  4.74999999999999977796e-01  1.95738197671629088337e-02  6.51427977126778356975e-07 15
1.25000000000000006939e-02  4.74999999999999977796e-01  3.91400511719662141941e-02  1.26032258169345157128e-06 15
1.87499999999999993061e-02  4.74999999999999977796e-01  5.86895337120182242208e-02  2.09101348361273586818e-07 15
2.50000000000000013878e-02  4.74999999999999977796e-01  7.82163903196153309505e-02  8.42200500103529314799e-07 15
3.12500000000000000000e-02  4.74999999999999977796e-01  9.77130930198279873400e-02  1.89317766341456916734e-06 15
3.74999999999999986122e-02  4.74999999999999977796e-01  1.17172125462629297954e-01  2.94342496913457818408e-06 15
4.37499999999999972244e-02  4.74999999999999977796e-01  1.36585985820593031059e-01  3.99253752683681462088e-06 15
5.00000000000000027756e-02  4.74999999999999977796e-01  1.55947189680978426374e-01  5.04011089674794021676e-06 15
5.62500000000000013878e-02  4.74999999999999977796e-01  1.75248272931166626520e-01  6.08574119265181678884e-06 15
6.25000000000000000000e-02  4.74999999999999977796e-01  1.94481794636128246800e-01  7.12902532767900609656e-06 15
6.87500000000000055511e-02  4.74999999999999977796e-01  2.13640339907122361884e-01  8.16956109286892662169e-06 15
7.49999999999999972244e-02  4.74999999999999977796e-01  2.32716522760272270798e-01  9.20694731684768008506e-06 15
8.12500000000000027756e-02  4.74999999999999977796e-01  2.51702988963919460641e-01  1.02407841045537573166e-05 15
8.74999999999999944489e-02  4.74999999999999977796e-01  2.70592418873925766309e-01  1.12706728848666060117e-05 15
9.37500000000000000000e-02  4.74999999999999977796e-01  2.89377530255530091008e-01  1.22962165700624126430e-05 15
1.00000000000000005551e-01  4.74999999999999977796e-01  3.08051081090630340942e-01  1.33170198672316608679e-05 15
1.06249999999999997224e-01  4.74999999999999977796e-01  3.26605872369959415735e-01  1.43326891899886454951e-05 15
1.12500000000000002776e-01  4.74999999999999977796e-01  3.45034750868290163162e-01  1.53428329610072466949e-05 15
1.18749999999999994449e-01  4.74999999999999977796e-01  3.63330611902085265363e-01  1.63470618169125891939e-05 15
1.25000000000000000000e-01  4.74999999999999977796e-01  3.81486402068677954436e-01  1.73449885691456806569e-05 15
1.31250000000000005551e-01  4.74999999999999977796e-01  3.99495121965371735584e-01  1.83362284738586289734e-05 15
1.37500000000000011102e-01  4.74999999999999977796e-01  4.17349828887830454072e-01  1.93203993935631146428e-05 15
1.43749999999999988898e-01  4.74999999999999977796e-01  4.35043639506583257326e-01  2.02971219838143923653e-05 15
1.49999999999999994449e-01  4.74999999999999977796e-01  4.52569732520915257723e-01  2.12660196040048710131e-05 15
1.56250000000000000000e-01  4.74999999999999977796e-01  4.69921351288294875115e-01  2.22267187757196893472e-05 15
1.62500000000000005551e-01  4.74999999999999977796e-01  4.87091806429356177777e-01  2.31788491589224321388e-05 15
1.68750000000000011102e-01  4.74999999999999977796e-01  5.04074478406844828093e-01  2.41220436323352771524e-05 15
1.74999999999999988898e-01  4.74999999999999977796e-01  5.20862820077467092439e-01  2.50559385428505976279e-05 15
1.81249999999999994449e-01  4.74999999999999977796e-01  5.37450359215703721283e-01  2.59801740807308334524e-05 15
1.87500000000000000000e-01  4.74999999999999977796e-01  5.53830701009815462577e-01  2.68943935789467403197e-05 15
1.93750000000000005551e-01  4.74999999999999977796e-01  5.69997530525979012594e-01  2.77982448360081235705e-05 15
2.00000000000000011102e-01  4.74999999999999977796e-01  5.85944615143651481581e-01  2.86913794147469758400e-05 15
2.06249999999999988898e-01  4.74999999999999977796e-01  6.01665806958379123515e-01  2.95734527618884968092e-05 15
2.12499999999999994449e-01  4.74999999999999977796e-01  6.17155045151154713068e-01  3.04441251172127280711e-05 15
2.18750000000000000000e-01  4.74999999999999977796e-01  6.32406358325916073682e-01  3.13030607079767264622e-05 15
2.25000000000000005551e-01  4.74999999999999977796e-01  6.47413866811234028908e-01  3.21499282762705007599e-05 15
2.31250000000000011102e-01  4.74999999999999977796e-01  6.62171784926808726368e-01  3.29844014363978033089e-05 15
2.37499999999999988898e-01  4.74999999999999977796e-01  6.76674423214177922503e-01  3.38061585817284182554e-05 15
2.43749999999999994449e-01  4.74999999999999977796e-01  6.90916190630451065857e-01  3.46148826700920508870e-05 15
2.50000000000000000000e-01  4.74999999999999977796e-01  7.04891596702976519495e-01  3.54102621307195164491e-05 15
2.56249999999999977796e-01  4.74999999999999977796e-01  7.18595253646604703590e-01  3.61919904044993856473e-05 15
2.62500000000000011102e-01  4.74999999999999977796e-01  7.32021878441195372744e-01  3.69597656479925262829e-05 15
2.68749999999999988898e-01  4.74999999999999977796e-01  7.45166294866625000815e-01  3.77132925464263024651e-05 15
2.75000000000000022204e-01  4.74999999999999977796e-01  7.58023435500772890805e-01  3.84522799746767063311e-05 15
2.81250000000000000000e-01  4.74999999999999977796e-01  7.70588343670782771611e-01  3.91764434334307409813e-05 15
2.87499999999999977796e-01  4.74999999999999977796e-01  7.82856175365446493863e-01  3.98855036687351116598e-05 15
2.93750000000000011102e-01  4.74999999999999977796e-01  7.94822201102177050558e-01  4.05791872646332762997e-05 15
2.99999999999999988898e-01  4.74999999999999977796e-01  8.06481807750280443869e-01  4.12572267811661674841e-05 15
3.06250000000000022204e-01  4.74999999999999977796e-01  8.17830500309372654399e-01  4.19193608918178028944e-05 15
3.12500000000000000000e-01  4.74999999999999977796e-01  8.28863903642576116404e-01  4.25653341948883934265e-05 15
3.18749999999999977796e-01  4.74999999999999977796e-01  8.39577764162776629675e-01  4.31948977542839784860e-05 15
3.25000000000000011102e-01  4.74999999999999977796e-01  8.49967951472511806799e-01  4.38078091458127261149e-05 15
3.31249999999999988898e-01  4.74999999999999977796e-01  8.60030459957514259450e-01  4.44038313531791573041e-05 15
3.37500000000000022204e-01  4.74999999999999977796e-01  8.69761410328373507639e-01  4.49827354397358547544e-05 15
3.43750000000000000000e-01  4.74999999999999977796e-01  8.79157051119244581372e-01  4.55442974665043465166e-05 15
3.49999999999999977796e-01  4.74999999999999977796e-01  8.88213760131229435046e-01  4.60883014600232954194e-05 15
3.56250000000000011102e-01  4.74999999999999977796e-01  8.96928045830675868544e-01  4.66145376218918272571e-05 15
3.62499999999999988898e-01  4.74999999999999977796e-01  9.05296548694732194917e-01  4.71228029084169719454e-05 15
3.68750000000000022204e-01  4.74999999999999977796e-01  9.13316042506006620094e-01  4.76129016099280377716e-05 15
3.75000000000000000000e-01  4.74999999999999977796e-01  9.20983435597451660648e-01  4.80846443090543473886e-05 15
3.81249999999999977796e-01  4.74999999999999977796e-01  9.28295772042480260566e-01  4.85378497347976889387e-05 15
3.87500000000000011102e-01  4.74999999999999977796e-01  9.35250232796590363904e-01  4.89723427739008343451e-05 15
3.93749999999999988898e-01  4.74999999999999977796e-01  9.41844136782856611312e-01  4.93879558411958186070e-05 15
4.00000000000000022204e-01  4.74999999999999977796e-01  9.48074941924916481106e-01  4.97845295651666575054e-05 15
4.06250000000000000000e-01  4.74999999999999977796e-01  9.53940246130156266346e-01  5.01619096817673693067e-05 15
4.12499999999999977796e-01  4.74999999999999977796e-01  9.59437788211086273193e-01  5.05199517709664647214e-05 15
4.18750000000000011102e-01  4.74999999999999977796e-01  9.64565448760890009616e-01  5.08585174947562279613e-05 15
4.24999999999999988898e-01  4.74999999999999977796e-01  9.69321250968944503335e-01  5.11774762010919204158e-05 15
4.31250000000000022204e-01  4.74999999999999977796e-01  9.73703361383055576717e-01  5.14767048375164293361e-05 15
4.37500000000000000000e-01  4.74999999999999977796e-01  9.77710090615558136129e-01  5.17560887286494519799e-05 15
4.43749999999999977796e-01  4.74999999999999977796e-01  9.81339893997066115006e-01  5.20155191621185508666e-05 15
4.50000000000000011102e-01  4.74999999999999977796e-01  9.84591372168511114182e-01  5.22548968912017741673e-05 15
4.56249999999999988898e-01  4.74999999999999977796e-01  9.87463271623583938030e-01  5.24741292101671419346e-05 15
4.62500000000000022204e-01  4.74999999999999977796e-01  9.89954485190115862636e-01  5.26731318608586462915e-05 15
4.68750000000000000000e-01  4.74999999999999977796e-01  9.92064052458197620510e-01  5.28518277805867242591e-05 15
4.74999999999999977796e-01  4.74999999999999977796e-01  9.93791160148781438366e-01  5.30101487874468091377e-05 15
4.81250000000000011102e-01  4.74999999999999977796e-01  9.95135142429812713516e-01  5.31480330083766716598e-05 15
4.87499999999999988898e-01  4.74999999999999977796e-01  9.96095481170156782369e-01  5.32654276678146132440e-05 15
4.93750000000000022204e-01  4.74999999999999977796e-01  9.96671806140737248647e-01  5.33622877191275435393e-05 15
5.00000000000000000000e-01  4.74999999999999977796e-01  9.96863895157766632948e-01  5.34385753613308978061e-05 15
5.06249999999999977796e-01  4.74999999999999977796e-01  9.96671674167111554254e-01  5.34942613448219361771e-05 15
5.12499999999999955591e-01  4.74999999999999977796e-01  9.96095217273420541204e-01  5.35293244040557780750e-05 15
5.18750000000000044409e-01  4.74999999999999977796e-01  9.95134746711596074320e-01  5.35437512250158675897e-05 15
5.25000000000000022204e-01  4.74999999999999977796e-01  9.93790632762167502889e-01  5.35375354013822857269e-05 15
5.31250000000000000000e-01  4.74999999999999977796e-01  9.92063393606022470017e-01  5.35106799558482393309e-05 15
5.37499999999999977796e-01  4.74999999999999977796e-01  9.89953695126698174356e-01  5.34631952785469266587e-05 15
5.43749999999999955591e-01  4.74999999999999977796e-01  9.87462350653424913993e-01  5.33950993691911790506e-05 15
5.50000000000000044409e-01  4.74999999999999977796e-01  9.84590320646613892386e-01  5.33064187883125484291e-05 15
5.56250000000000022204e-01  4.74999999999999977796e-01  9.81338712328759243952e-01  5.31971874689896040422e-05 15
5.62500000000000000000e-01  4.74999999999999977796e-01  9.77708779256778015565e-01  5.30674475087700159293e-05 15
5.68749999999999977796e-01  4.74999999999999977796e-01  9.73701920838646595158e-01  5.29172492464979882243e-05 15
5.74999999999999955591e-01  4.74999999999999977796e-01  9.69319681794985621437e-01  5.27466501600848403086e-05 15
5.81250000000000044409e-01  4.74999999999999977796e-01  9.64563751561701931969e-01  5.25557166828338750975e-05 15
5.87500000000000022204e-01  4.74999999999999977796e-01  9.59435963641545264124e-01  5.23445213119755337061e-05 15
5.93750000000000000000e-01  4.74999999999999977796e-01  9.53938294893028282395e-01  5.21131468097513206317e-05 15
5.99999999999999977796e-01  4.74999999999999977796e-01  9.48072864773257029114e-01  5.18616812247296721239e-05 15
6.06249999999999955591e-01  4.74999999999999977796e-01  9.41841934516589596171e-01  5.15902221083219814091e-05 15
6.12500000000000044409e-01  4.74999999999999977796e-01  9.35247906264960349176e-01  5.12988744038045396678e-05 15
6.18750000000000022204e-01  4.74999999999999977796e-01  9.28293322143290189352e-01  5.09877489249799253912e-05 15
6.25000000000000000000e-01  4.74999999999999977796e-01  9.20980863274075911562e-01  5.06569676848034333716e-05 15