Titile = 'Poisson'  
VARIABLES = X, Y, U, Error, Rank 
zone N= 451, E = 800
DATAPACKING=POINT, ZONETYPE=FETRIANGLE
0.00000000000000000000e+00  7.50000000000000000000e-01  0.00000000000000000000e+00  0.00000000000000000000e+00 3
2.50000000000000013878e-02  7.50000000000000000000e-01  5.54005828353004020626e-02  7.83757996232412046389e-05 3
5.00000000000000027756e-02  7.50000000000000000000e-01  1.10464905639349755817e-01  1.50965401887401262648e-04 3
7.49999999999999972244e-02  7.50000000000000000000e-01  1.64852849719699962039e-01  2.17950099371699845818e-04 3
1.00000000000000005551e-01  7.50000000000000000000e-01  2.18228514835312109588e-01  2.79497389098409820818e-04 3
1.25000000000000000000e-01  7.50000000000000000000e-01  2.70262293392696251182e-01  3.35756680402254925610e-04 3
1.49999999999999994449e-01  7.50000000000000000000e-01  3.20632903595421681064e-01  3.86857364681358895098e-04 3
1.74999999999999988898e-01  7.50000000000000000000e-01  3.69029369199405044011e-01  4.32909071480525042830e-04 3
2.00000000000000011102e-01  7.50000000000000000000e-01  4.15152934122360262048e-01  4.74003655093202524995e-04 3
2.25000000000000005551e-01  7.50000000000000000000e-01  4.58718900630696757581e-01  5.10218371944815007879e-04 3
2.50000000000000000000e-01  7.50000000000000000000e-01  4.99458380248844202587e-01  5.41619751155797413134e-04 3
2.75000000000000022204e-01  7.50000000000000000000e-01  5.37119946970099793049e-01  5.68267760386764742009e-04 3
2.99999999999999988898e-01  7.50000000000000000000e-01  5.71471182837781976893e-01  5.90219979902384395132e-04 3
3.25000000000000011102e-01  7.50000000000000000000e-01  6.02300106530832324303e-01  6.07535595958719198961e-04 3
3.49999999999999977796e-01  7.50000000000000000000e-01  6.29416476233512600658e-01  6.20279101537835053648e-04 3
3.75000000000000000000e-01  7.50000000000000000000e-01  6.52652958789988191235e-01  6.28523648200096651806e-04 3
4.00000000000000022204e-01  7.50000000000000000000e-01  6.71866157933032170924e-01  6.32354030925208476788e-04 3
4.24999999999999988898e-01  7.50000000000000000000e-01  6.86937495222358696090e-01  6.31869312661903492767e-04 3
4.50000000000000011102e-01  7.50000000000000000000e-01  6.97773938222820966359e-01  6.27185110889438846016e-04 3
4.74999999999999977796e-01  7.50000000000000000000e-01  7.04308571387179283008e-01  6.18435577928067026221e-04 3
5.00000000000000000000e-01  7.50000000000000000000e-01  7.06501006074258808276e-01  6.05775112288764461255e-04 3
5.25000000000000022204e-01  7.50000000000000000000e-01  7.04337627123465037648e-01  5.89379841642312385375e-04 3
5.50000000000000044409e-01  7.50000000000000000000e-01  6.97831674413737723661e-01  5.69448919972570521963e-04 3
5.74999999999999955591e-01  7.50000000000000000000e-01  6.87023158852251403239e-01  5.46205682769196343429e-04 3
5.99999999999999977796e-01  7.50000000000000000000e-01  6.71978613258979895484e-01  5.19898704977483916423e-04 3
6.25000000000000000000e-01  7.50000000000000000000e-01  6.52790679631292891649e-01  4.90802806895396237508e-04 3
6.50000000000000022204e-01  7.50000000000000000000e-01  6.29577535282107914050e-01  4.59220052942632683823e-04 3
6.75000000000000044409e-01  7.50000000000000000000e-01  6.02482161340143207440e-01  4.25480786647836062286e-04 3
6.99999999999999955591e-01  7.50000000000000000000e-01  5.71671458076367544621e-01  3.89944741316816667620e-04 3
7.24999999999999977796e-01  7.50000000000000000000e-01  5.37335212472482615098e-01  3.53002258003942692710e-04 3
7.50000000000000000000e-01  7.50000000000000000000e-01  4.99684924371609939797e-01  3.15075628390171225135e-04 3
7.75000000000000022204e-01  7.50000000000000000000e-01  4.58952498445779899505e-01  2.76620556861728594811e-04 3
8.00000000000000044409e-01  7.50000000000000000000e-01  4.15388810078127501679e-01  2.38127699326018404946e-04 3
8.24999999999999955591e-01  7.50000000000000000000e-01  3.69262154088942862185e-01  2.00124181942762380260e-04 3
8.49999999999999977796e-01  7.50000000000000000000e-01  3.20856586032868595915e-01  1.63174927234555067201e-04 3
8.75000000000000000000e-01  7.50000000000000000000e-01  2.70470166555076219073e-01  1.27883518022398057212e-04 3
9.00000000000000022204e-01  7.50000000000000000000e-01  2.18413120004575078692e-01  9.48922198355239832068e-05 3
9.25000000000000044409e-01  7.50000000000000000000e-01  1.65005919135436190937e-01  6.48806836355819704920e-05 3
9.49999999999999955591e-01  7.50000000000000000000e-01  1.10577308231875198752e-01  3.85628093620415945963e-05 3
9.74999999999999977796e-01  7.50000000000000000000e-01  5.54622772994982846106e-02  1.66813354254488621642e-05 3
1.00000000000000000000e+00  7.50000000000000000000e-01  0.00000000000000000000e+00  8.65956056235493409077e-17 3
0.00000000000000000000e+00  7.75000000000000022204e-01  0.00000000000000000000e+00  0.00000000000000000000e+00 3
2.50000000000000013878e-02  7.75000000000000022204e-01  5.08792031718017859210e-02  7.59034223981741584808e-05 3
5.00000000000000027756e-02  7.75000000000000022204e-01  1.01450391431311903734e-01  1.45666580642397902601e-04 3
7.49999999999999972244e-02  7.75000000000000022204e-01  1.51401073075258879586e-01  2.09562872688501267149e-04 3
1.00000000000000005551e-01  7.75000000000000022204e-01  2.00422639453614076510e-01  2.67844444054893271456e-04 3
1.25000000000000000000e-01  7.75000000000000022204e-01  2.48212272233420461198e-01  3.20736044382985419077e-04 3
1.49999999999999994449e-01  7.75000000000000022204e-01  2.94474811432350769280e-01  3.68432583942646108000e-04 3
1.74999999999999988898e-01  7.75000000000000022204e-01  3.38924573266608908373e-01  4.11099843486251170788e-04 3
2.00000000000000011102e-01  7.75000000000000022204e-01  3.81287107484208409591e-01  4.48877454402918374399e-04 3
2.25000000000000005551e-01  7.75000000000000022204e-01  4.21300884214984072695e-01  4.81883264900562213739e-04 3
2.50000000000000000000e-01  7.75000000000000022204e-01  4.58718900630696868603e-01  5.10218371944703985577e-04 3
2.75000000000000022204e-01  7.75000000000000022204e-01  4.93310197992644638987e-01  5.33972304924357210609e-04 3
2.99999999999999988898e-01  7.75000000000000022204e-01  5.24861280030996746326e-01  5.53228031764163574735e-04 3
3.25000000000000011102e-01  7.75000000000000022204e-01  5.53177424067974876642e-01  5.68066599717420572802e-04 3
3.49999999999999977796e-01  7.75000000000000022204e-01  5.78083876862413248432e-01  5.78571321182885789369e-04 3
3.75000000000000000000e-01  7.75000000000000022204e-01  5.99426927803532239025e-01  5.84831478125491521780e-04 3
4.00000000000000022204e-01  7.75000000000000022204e-01  6.17074852802660167583e-01  5.86945556930951184427e-04 3
4.24999999999999988898e-01  7.75000000000000022204e-01  6.30918723010145843233e-01  5.85024047101367905555e-04 3
4.50000000000000011102e-01  7.75000000000000022204e-01  6.40873073309469631909e-01  5.79191848520399510392e-04 3
4.74999999999999977796e-01  7.75000000000000022204e-01  6.46876426402211102129e-01  5.69590337299308302477e-04 3
5.00000000000000000000e-01  7.75000000000000022204e-01  6.48891669187922515150e-01  5.56379142261254067137e-04 3
5.25000000000000022204e-01  7.75000000000000022204e-01  6.46906279054714650201e-01  5.39737684795760230827e-04 3
5.50000000000000044409e-01  7.75000000000000022204e-01  6.40932398622988119818e-01  5.19866535001800578186e-04 3
5.74999999999999955591e-01  7.75000000000000022204e-01  6.31006758419807134430e-01  4.96988637440076708174e-04 3
5.99999999999999977796e-01  7.75000000000000022204e-01  6.17190447898968042040e-01  4.71350460623076727984e-04 3
6.25000000000000000000e-01  7.75000000000000022204e-01  5.99568536156082299016e-01  4.43223125575431531331e-04 3
6.50000000000000022204e-01  7.75000000000000022204e-01  5.78249544613425370265e-01  4.12903570170874978373e-04 3
6.75000000000000044409e-01  7.75000000000000022204e-01  5.53364774860809705004e-01  3.80715806882703233782e-04 3
6.99999999999999955591e-01  7.75000000000000022204e-01  5.25067495731715294660e-01  3.47012331045615241010e-04 3
7.24999999999999977796e-01  7.75000000000000022204e-01  4.93531994564673726078e-01  3.12175732895270119371e-04 3
7.50000000000000000000e-01  7.75000000000000022204e-01  4.58952498445779955016e-01  2.76620556861673083660e-04 3
7.75000000000000022204e-01  7.75000000000000022204e-01  4.21541972048639079773e-01  2.40795431245610647153e-04 3
8.00000000000000044409e-01  7.75000000000000022204e-01  3.81530799484005700428e-01  2.05185454605738559763e-04 3
8.24999999999999955591e-01  7.75000000000000022204e-01  3.39165358347043144338e-01  1.70314763052070716753e-04 3
8.49999999999999977796e-01  7.75000000000000022204e-01  2.94706494910558558509e-01  1.36749105734967901782e-04 3
8.75000000000000000000e-01  7.75000000000000022204e-01  2.48427910162473869482e-01  1.05098115329632646464e-04 3
9.00000000000000022204e-01  7.75000000000000022204e-01  2.00614467121175837905e-01  7.60167764931873879419e-05 3
9.25000000000000044409e-01  7.75000000000000022204e-01  1.51560430558022152248e-01  5.02053899253118718349e-05 3
9.49999999999999955591e-01  7.75000000000000022204e-01  1.01567650845639387280e-01  2.84071663149837450035e-05 3
9.74999999999999977796e-01  7.75000000000000022204e-01  5.09437040078311240143e-02  1.14025863689123929667e-05 3
1.00000000000000000000e+00  7.75000000000000022204e-01  0.00000000000000000000e+00  7.95344473600055099415e-17 3
0.00000000000000000000e+00  8.00000000000000044409e-01  0.00000000000000000000e+00  0.00000000000000000000e+00 3
2.50000000000000013878e-02  8.00000000000000044409e-01  4.60444718521708790115e-02  7.26275248597724187860e-05 3
5.00000000000000027756e-02  8.00000000000000044409e-01  9.18110563124961143178e-02  1.38815188414076473578e-04 3
7.49999999999999972244e-02  8.00000000000000044409e-01  1.37016801070469068646e-01  1.98941020082499253618e-04 3
1.00000000000000005551e-01  8.00000000000000044409e-01  1.81382281393476896270e-01  2.53350607863356280802e-04 3
1.25000000000000000000e-01  8.00000000000000044409e-01  2.24633329003501858168e-01  3.02348837362048650235e-04 3
1.49999999999999994449e-01  8.00000000000000044409e-01  2.66502722960624216508e-01  3.46197467171294182009e-04 3
1.74999999999999988898e-01  8.00000000000000044409e-01  3.06731833521052543734e-01  3.85117162966575055094e-04 3
2.00000000000000011102e-01  8.00000000000000044409e-01  3.45072210467617546126e-01  4.19292344908839265116e-04 3
2.25000000000000005551e-01  8.00000000000000044409e-01  3.81287107484207798969e-01  4.48877454403584508213e-04 3
2.50000000000000000000e-01  8.00000000000000044409e-01  4.15152934122360040003e-01  4.74003655093424569600e-04 3
2.75000000000000022204e-01  8.00000000000000044409e-01  4.46460626975530849858e-01  4.94785359385130352194e-04 3
2.99999999999999988898e-01  8.00000000000000044409e-01  4.75016931895194616242e-01  5.11326252382260371121e-04 3
3.25000000000000011102e-01  8.00000000000000044409e-01  5.00645589449647321345e-01  5.23724669918568253024e-04 3
3.49999999999999977796e-01  8.00000000000000044409e-01  5.23188416316052062882e-01  5.32078298247418146616e-04 3
3.75000000000000000000e-01  8.00000000000000044409e-01  5.42506275881205035638e-01  5.36488223793929464023e-04 3
4.00000000000000022204e-01  8.00000000000000044409e-01  5.58479931983627220227e-01  5.37062391320342058521e-04 3
4.24999999999999988898e-01  8.00000000000000044409e-01  5.71010780441673637675e-01  5.33918540886801906709e-04 3
4.50000000000000011102e-01  8.00000000000000044409e-01  5.80021453766315975287e-01  5.27186696731352100187e-04 3
4.74999999999999977796e-01  8.00000000000000044409e-01  5.85456295243600544076e-01  5.17011279465795503540e-04 3
5.00000000000000000000e-01  8.00000000000000044409e-01  5.87281699382668276321e-01  5.03552909804971804419e-04 3
5.25000000000000022204e-01  8.00000000000000044409e-01  5.85486316554058805472e-01  4.86989969007534106993e-04 3
5.50000000000000044409e-01  8.00000000000000044409e-01  5.80081120484004952864e-01  4.67519979042263500446e-04 3
5.74999999999999955591e-01  8.00000000000000044409e-01  5.71099338117802113324e-01  4.45360864758437280386e-04 3
5.99999999999999977796e-01  8.00000000000000044409e-01  5.58596242213930338494e-01  4.20752161017223791362e-04 3
6.25000000000000000000e-01  8.00000000000000044409e-01  5.42648807874983152288e-01  3.93956230015812813861e-04 3
6.50000000000000022204e-01  8.00000000000000044409e-01  5.23355235056727097209e-01  3.65259557572383819490e-04 3
6.75000000000000044409e-01  8.00000000000000044409e-01  5.00834339917932358510e-01  3.34974201633642110210e-04 3
6.99999999999999955591e-01  8.00000000000000044409e-01  4.75224818676762028602e-01  3.03439470814848011315e-04 3
7.24999999999999977796e-01  8.00000000000000044409e-01  4.46684388421079214826e-01  2.71023913836765384389e-04 3
7.50000000000000000000e-01  8.00000000000000044409e-01  4.15388810078127557190e-01  2.38127699325962893795e-04 3
7.75000000000000022204e-01  8.00000000000000044409e-01  3.81530799484005811451e-01  2.05185454605627537461e-04 3
8.00000000000000044409e-01  8.00000000000000044409e-01  3.45318833209169229193e-01  1.72669603357211709493e-04 3
8.24999999999999955591e-01  8.00000000000000044409e-01  3.06975856501721433567e-01  1.41094182297740733389e-04 3
8.49999999999999977796e-01  8.00000000000000044409e-01  2.66737901420630696414e-01  1.11019007164869787374e-04 3
8.75000000000000000000e-01  8.00000000000000044409e-01  2.24852623966422165980e-01  8.30538744418241048351e-05 3
9.00000000000000022204e-01  8.00000000000000044409e-01  1.81577769795809917941e-01  5.78622055303901206003e-05 3
9.25000000000000044409e-01  8.00000000000000044409e-01  1.37179578926134387862e-01  3.61631644172633048839e-05 3
9.49999999999999955591e-01  8.00000000000000044409e-01  9.19311406291949406722e-02  1.87308717153056303317e-05 3
9.74999999999999977796e-01  8.00000000000000044409e-01  4.61107102899813922625e-02  6.38908704932855675551e-06 3
1.00000000000000000000e+00  8.00000000000000044409e-01  0.00000000000000000000e+00  7.19829327805996755601e-17 3
0.00000000000000000000e+00  8.24999999999999955591e-01  0.00000000000000000000e+00  0.00000000000000000000e+00 3
2.50000000000000013878e-02  8.24999999999999955591e-01  4.09262755856380708308e-02  6.84893210721529421825e-05 3
5.00000000000000027756e-02  8.24999999999999955591e-01  8.16064810651627448035e-02  1.30302390465172890366e-04 3
7.49999999999999972244e-02  8.24999999999999955591e-01  1.21788928834269324919e-01  1.85938720033695936706e-04 3
1.00000000000000005551e-01  8.24999999999999955591e-01  1.61225088130052374158e-01  2.35847903694103022687e-04 3
1.25000000000000000000e-01  8.24999999999999955591e-01  1.99671124768997287902e-01  2.80419382335028721798e-04 3
1.49999999999999994449e-01  8.24999999999999955591e-01  2.36889403105174950470e-01  3.19981403414604237412e-04 3
1.74999999999999988898e-01  8.24999999999999955591e-01  2.72649944115850251247e-01  3.54806014376318756831e-04 3
2.00000000000000011102e-01  8.24999999999999955591e-01  3.06731833521053431912e-01  3.85117162965686876674e-04 3
2.25000000000000005551e-01  8.24999999999999955591e-01  3.38924573266609352462e-01  4.11099843485807081578e-04 3
2.50000000000000000000e-01  8.24999999999999955591e-01  3.69029369199405765656e-01  4.32909071479803397864e-04 3
2.75000000000000022204e-01  8.24999999999999955591e-01  3.96860347548150360630e-01  4.50678079311095380888e-04 3
2.99999999999999988898e-01  8.24999999999999955591e-01  4.22245692890248880413e-01  4.64525501472079493936e-04 3
3.25000000000000011102e-01  8.24999999999999955591e-01  4.45028700569475466065e-01  4.74561524708483339907e-04 3
3.49999999999999977796e-01  8.24999999999999955591e-01  4.65068736963263118511e-01  4.80893077705490945561e-04 3
3.75000000000000000000e-01  8.24999999999999955591e-01  4.82242101533060851803e-01  4.83628174528349941141e-04 3
4.00000000000000022204e-01  8.24999999999999955591e-01  4.96442785193554003698e-01  4.82879534414171196488e-04 3
4.24999999999999988898e-01  8.24999999999999955591e-01  5.07583120186067326962e-01  4.78767594680129526807e-04 3
4.50000000000000011102e-01  8.24999999999999955591e-01  5.15594317325096307414e-01  4.71423022540440328498e-04 3
4.74999999999999977796e-01  8.24999999999999955591e-01  5.20426887195980625300e-01  4.60988820029428758573e-04 3
5.00000000000000000000e-01  8.24999999999999955591e-01  5.22050942609736390310e-01  4.47622106212519632606e-04 3
5.25000000000000022204e-01  8.24999999999999955591e-01  5.20456380362750214985e-01  4.31495653259839073712e-04 3
5.50000000000000044409e-01  8.24999999999999955591e-01  5.15652941099582151629e-01  4.12799248054596112922e-04 3
5.74999999999999955591e-01  8.24999999999999955591e-01  5.07670146831857849179e-01  3.91740948889718332282e-04 3
5.99999999999999977796e-01  8.24999999999999955591e-01  4.96557116420481170493e-01  3.68548307487059911836e-04 3
6.25000000000000000000e-01  8.24999999999999955591e-01  4.82382260077659219544e-01  3.43469629929982200878e-04 3
6.50000000000000022204e-01  8.24999999999999955591e-01  4.65232854684662189282e-01  3.16775356306475686097e-04 3
6.75000000000000044409e-01  8.24999999999999955591e-01  4.45214502446475757225e-01  2.88759647708247690900e-04 3
6.99999999999999955591e-01  8.24999999999999955591e-01  4.22450476111227324338e-01  2.59742280493635568916e-04 3
7.24999999999999977796e-01  8.24999999999999955591e-01  3.97080954666977015144e-01  2.30070960484440867333e-04 3
7.50000000000000000000e-01  8.24999999999999955591e-01  3.69262154088942751162e-01  2.00124181942873402562e-04 3
7.75000000000000022204e-01  8.24999999999999955591e-01  3.39165358347043477405e-01  1.70314763051737649846e-04 3
8.00000000000000044409e-01  8.24999999999999955591e-01  3.06975856501721378056e-01  1.41094182297796244541e-04 3
8.24999999999999955591e-01  8.24999999999999955591e-01  2.72891792328541549217e-01  1.12957801685076297815e-04 3
8.49999999999999977796e-01  8.24999999999999955591e-01  2.37122933544618330615e-01  8.64509639712796040811e-05 3
8.75000000000000000000e-01  8.24999999999999955591e-01  1.99889368405652384508e-01  6.21757456799876262465e-05 3
9.00000000000000022204e-01  8.24999999999999955591e-01  1.61420138261686524350e-01  4.07977720600083415547e-05 3
9.25000000000000044409e-01  8.24999999999999955591e-01  1.21951815663428525527e-01  2.30518908745647177483e-05 3
9.49999999999999955591e-01  8.24999999999999955591e-01  8.17270387966413242031e-02  9.74465898664900187498e-06 3
9.74999999999999977796e-01  8.24999999999999955591e-01  4.09930141764195329901e-02  1.75073029075323294279e-06 3
1.00000000000000000000e+00  8.24999999999999955591e-01  0.00000000000000000000e+00  6.39876194838473014780e-17 3
0.00000000000000000000e+00  8.49999999999999977796e-01  0.00000000000000000000e+00  0.00000000000000000000e+00 3
2.50000000000000013878e-02  8.49999999999999977796e-01  3.55562722399833247566e-02  6.34118386139484457864e-05 3
5.00000000000000027756e-02  8.49999999999999977796e-01  7.08997740494639316911e-02  1.19986910639149901847e-04 3
7.49999999999999972244e-02  8.49999999999999977796e-01  1.05811607950195660233e-01  1.70369448627180619660e-04 3
1.00000000000000005551e-01  8.49999999999999977796e-01  1.40075654476589400721e-01  2.15125227705698085501e-04 3
1.25000000000000000000e-01  8.49999999999999977796e-01  1.73479911792090824019e-01  2.54730909381356562804e-04 3
1.49999999999999994449e-01  8.49999999999999977796e-01  2.05817796317556950259e-01  2.89577536206508945327e-04 3
1.74999999999999988898e-01  8.49999999999999977796e-01  2.36889403105174728426e-01  3.19981403414826282017e-04 3
2.00000000000000011102e-01  8.49999999999999977796e-01  2.66502722960624438553e-01  3.46197467171072137404e-04 3
2.25000000000000005551e-01  8.49999999999999977796e-01  2.94474811432350880303e-01  3.68432583942590596848e-04 3
2.50000000000000000000e-01  8.49999999999999977796e-01  3.20632903595422069642e-01  3.86857364681025828190e-04 3
2.75000000000000022204e-01  8.49999999999999977796e-01  3.44815468056713869682e-01  4.01616270976901112988e-04 3
2.99999999999999988898e-01  8.49999999999999977796e-01  3.66873193584903722897e-01  4.12835989164861416612e-04 3
3.25000000000000011102e-01  8.49999999999999977796e-01  3.86669902030715717522e-01  4.20632282407962243553e-04 3
3.49999999999999977796e-01  8.49999999999999977796e-01  4.04083381624607662630e-01  4.25115562866063001479e-04 3
3.75000000000000000000e-01  8.49999999999999977796e-01  4.19006135248982225505e-01  4.26395414955760276854e-04 3
4.00000000000000022204e-01  8.49999999999999977796e-01  4.31346038842671253288e-01  4.24584270718009193502e-04 3
4.24999999999999988898e-01  8.49999999999999977796e-01  4.41026905687520398569e-01  4.19800405524195507923e-04 3
4.50000000000000011102e-01  8.49999999999999977796e-01  4.47988952940630735799e-01  4.12170393079613894827e-04 3
4.74999999999999977796e-01  8.49999999999999977796e-01  4.52189167405384950804e-01  4.01831135134422812172e-04 3
5.00000000000000000000e-01  8.49999999999999977796e-01  4.53601568176062175386e-01  3.88931563484684605925e-04 3
5.25000000000000022204e-01  8.49999999999999977796e-01  4.52217364441105384998e-01  3.73634099413988618466e-04 3
5.50000000000000044409e-01  8.49999999999999977796e-01  4.48045007385700855274e-01  3.56115948009438909594e-04 3
5.74999999999999955591e-01  8.49999999999999977796e-01  4.41110135791716151399e-01  3.36570301328498189264e-04 3
5.99999999999999977796e-01  8.49999999999999977796e-01  4.31455415588416157924e-01  3.15207524973160069237e-04 3
6.25000000000000000000e-01  8.49999999999999977796e-01  4.19140274256790679175e-01  2.92256407147306607186e-04 3
6.50000000000000022204e-01  8.49999999999999977796e-01  4.04240531629285360093e-01  2.67965558188421049124e-04 3
6.75000000000000044409e-01  8.49999999999999977796e-01  3.86847929251107225390e-01  2.42605062016509887002e-04 3
6.99999999999999955591e-01  8.49999999999999977796e-01  3.67069561074216843544e-01  2.16468499851740769913e-04 3
7.24999999999999977796e-01  8.49999999999999977796e-01  3.45027208836498677780e-01  1.89875491192093015513e-04 3
7.50000000000000000000e-01  8.49999999999999977796e-01  3.20856586032868262848e-01  1.63174927234888134109e-04 3
7.75000000000000022204e-01  8.49999999999999977796e-01  2.94706494910558336464e-01  1.36749105735189946387e-04 3
8.00000000000000044409e-01  8.49999999999999977796e-01  2.66737901420630640903e-01  1.11019007164925298525e-04 3
8.24999999999999955591e-01  8.49999999999999977796e-01  2.37122933544618358370e-01  8.64509639712518485055e-05 3
8.49999999999999977796e-01  8.49999999999999977796e-01  2.06043808920227722314e-01  6.35649335357646450007e-05 3
8.75000000000000000000e-01  8.49999999999999977796e-01  1.73691698279513029313e-01  4.29444219592067799596e-05 3
9.00000000000000022204e-01  8.49999999999999977796e-01  1.40265532006469767490e-01  2.52476978253868278301e-05 3
9.25000000000000044409e-01  8.49999999999999977796e-01  1.05970758306743781385e-01  1.12190920791149784108e-05 3
9.49999999999999955591e-01  8.49999999999999977796e-01  7.10180632685995238962e-02  1.69769150361320786402e-06 3
9.74999999999999977796e-01  8.49999999999999977796e-01  3.56220654796687019594e-02  2.38140107137324585906e-06 3
1.00000000000000000000e+00  8.49999999999999977796e-01  0.00000000000000000000e+00  5.55978012349343296762e-17 3
0.00000000000000000000e+00  8.75000000000000000000e-01  0.00000000000000000000e+00  0.00000000000000000000e+00 3
2.50000000000000013878e-02  8.75000000000000000000e-01  2.99677068715163488766e-02  5.72891818765158822302e-05 3
5.00000000000000027756e-02  8.75000000000000000000e-01  5.97572004669519735165e-02  1.07677554840236722189e-04 3
7.49999999999999972244e-02  8.75000000000000000000e-01  8.91836865811761886347e-02  1.51986528918984786785e-04 3
1.00000000000000005551e-01  8.75000000000000000000e-01  1.18064773783922424832e-01  1.90910282626119420790e-04 3
1.25000000000000000000e-01  8.75000000000000000000e-01  1.46221598958162696258e-01  2.25010448563600640171e-04 3
1.49999999999999994449e-01  8.75000000000000000000e-01  1.73479911792090962797e-01  2.54730909381245540501e-04 3
1.74999999999999988898e-01  8.75000000000000000000e-01  1.99671124768997426679e-01  2.80419382334917699495e-04 3
2.00000000000000011102e-01  8.75000000000000000000e-01  2.24633329003501858168e-01  3.02348837362076405810e-04 3
2.25000000000000005551e-01  8.75000000000000000000e-01  2.48212272233420377932e-01  3.20736044383096441379e-04 3
2.50000000000000000000e-01  8.75000000000000000000e-01  2.70262293392695973626e-01  3.35756680402587992518e-04 3
2.75000000000000022204e-01  8.75000000000000000000e-01  2.90647207613803360005e-01  3.47557292906974790725e-04 3
2.99999999999999988898e-01  8.75000000000000000000e-01  3.09241135581563630907e-01  3.56264667529859746509e-04 3
3.25000000000000011102e-01  8.75000000000000000000e-01  3.25929271520640273518e-01  3.61993146718087022151e-04 3
3.49999999999999977796e-01  8.75000000000000000000e-01  3.40608584573888040214e-01  3.64850362205015876782e-04 3
3.75000000000000000000e-01  8.75000000000000000000e-01  3.53188448845493330186e-01  3.64941747780511693833e-04 3
4.00000000000000022204e-01  8.75000000000000000000e-01  3.63591197914382047163e-01  3.62374114632357802179e-04 3
4.24999999999999988898e-01  8.75000000000000000000e-01  3.71752600161076585117e-01  3.57258505275515059196e-04 3
4.50000000000000011102e-01  8.75000000000000000000e-01  3.77622251793421792598e-01  3.49712492505482863692e-04 3
4.74999999999999977796e-01  8.75000000000000000000e-01  3.81163885003219959913e-01  3.39862054027251225818e-04 3
5.00000000000000000000e-01  8.75000000000000000000e-01  3.82355589236752668736e-01  3.27843128337224065660e-04 3
5.25000000000000022204e-01  8.75000000000000000000e-01  3.81189944116505252669e-01  3.13802940741958469317e-04 3
5.50000000000000044409e-01  8.75000000000000000000e-01  3.77674063107628021907e-01  2.97901178299198043931e-04 3
5.74999999999999955591e-01  8.75000000000000000000e-01  3.71829547578420849252e-01  2.80311087931306435195e-04 3
5.99999999999999977796e-01  8.75000000000000000000e-01  3.63692351456592066761e-01  2.61220572422393715328e-04 3
6.25000000000000000000e-01  8.75000000000000000000e-01  3.53312557228766810358e-01  2.40833364507031522095e-04 3
6.50000000000000022204e-01  8.75000000000000000000e-01  3.40754064565782832652e-01  2.19370370310278950399e-04 3
6.75000000000000044409e-01  8.75000000000000000000e-01  3.26094193376422369912e-01  1.97071290936046139564e-04 3
6.99999999999999955591e-01  8.75000000000000000000e-01  3.09423203591997209028e-01  1.74196657096281626309e-04 3
7.24999999999999977796e-01  8.75000000000000000000e-01  2.90843734458480884797e-01  1.51030448229449998365e-04 3
7.50000000000000000000e-01  8.75000000000000000000e-01  2.70470166555076496628e-01  1.27883518022120501456e-04 3
7.75000000000000022204e-01  8.75000000000000000000e-01  2.48427910162473869482e-01  1.05098115329632646464e-04 3
8.00000000000000044409e-01  8.75000000000000000000e-01  2.24852623966422221491e-01  8.30538744417685936838e-05 3
8.24999999999999955591e-01  8.75000000000000000000e-01  1.99889368405652412264e-01  6.21757456799598706709e-05 3
8.49999999999999977796e-01  8.75000000000000000000e-01  1.73691698279513112579e-01  4.29444219591235132327e-05 3
8.75000000000000000000e-01  8.75000000000000000000e-01  1.46420699588031999472e-01  2.59098186943251818093e-05 3
9.00000000000000022204e-01  8.75000000000000000000e-01  1.18243976152884622266e-01  1.17079136639636205430e-05 3
9.25000000000000044409e-01  8.75000000000000000000e-01  8.93345927222496116737e-02  1.08038784561725886846e-06 3
9.49999999999999955591e-01  8.75000000000000000000e-01  5.98699836478350996827e-02  5.10562604284781063058e-06 3
9.74999999999999977796e-01  8.75000000000000000000e-01  3.00308406844894196230e-02  5.84463109650629197844e-06 3
1.00000000000000000000e+00  8.75000000000000000000e-01  0.00000000000000000000e+00  4.68652040532629981719e-17 3
0.00000000000000000000e+00  9.00000000000000022204e-01  0.00000000000000000000e+00  0.00000000000000000000e+00 3
2.50000000000000013878e-02  9.00000000000000022204e-01  2.41952263657454584578e-02  4.99675774494716395946e-05 3
5.00000000000000027756e-02  9.00000000000000022204e-01  4.82478035318364903428e-02  9.31046715484523668138e-05 3
7.49999999999999972244e-02  9.00000000000000022204e-01  7.20081305191724863057e-02  1.30454170345406517129e-04 3
1.00000000000000005551e-01  9.00000000000000022204e-01  9.53286576602952878678e-02  1.62845152231014256294e-04 3
1.25000000000000000000e-01  9.00000000000000022204e-01  1.18064773783922397077e-01  1.90910282626161054154e-04 3
1.49999999999999994449e-01  9.00000000000000022204e-01  1.40075654476589400721e-01  2.15125227705725841076e-04 3
1.74999999999999988898e-01  9.00000000000000022204e-01  1.61225088130052013335e-01  2.35847903694491600746e-04 3
2.00000000000000011102e-01  9.00000000000000022204e-01  1.81382281393476507692e-01  2.53350607863772614436e-04 3
2.25000000000000005551e-01  9.00000000000000022204e-01  2.00422639453613410376e-01  2.67844444055587160847e-04 3
2.50000000000000000000e-01  9.00000000000000022204e-01  2.18228514835311498965e-01  2.79497389099075954633e-04 3
2.75000000000000022204e-01  9.00000000000000022204e-01  2.34689918414048542816e-01  2.88447580452766416670e-04 3
2.99999999999999988898e-01  9.00000000000000022204e-01  2.49705186862360789535e-01  2.94813137639265976375e-04 3
3.25000000000000011102e-01  9.00000000000000022204e-01  2.63181601378464691265e-01  2.98699493598120202620e-04 3
3.49999999999999977796e-01  9.00000000000000022204e-01  2.75035953141330669069e-01  3.00204931827696697155e-04 3
3.75000000000000000000e-01  9.00000000000000022204e-01  2.85195051482133421494e-01  2.99424819035998268646e-04 3
4.00000000000000022204e-01  9.00000000000000022204e-01  2.93596171267345551481e-01  2.96454878891072581837e-04 3
4.24999999999999988898e-01  9.00000000000000022204e-01  3.00187436468060453443e-01  2.91393753836521884892e-04 3