Titile = 'Poisson'  
VARIABLES = X, Y, U, Error, Rank 
zone N= 966, E = 1600
DATAPACKING=POINT, ZONETYPE=FETRIANGLE
0.00000000000000000000e+00  9.37500000000000000000e-01  0.00000000000000000000e+00  0.00000000000000000000e+00 30
6.25000000000000034694e-03  9.37500000000000000000e-01  3.80887924712977957165e-03  2.14641373798320211908e-05 30
1.25000000000000006939e-02  9.37500000000000000000e-01  7.61681865183068927683e-03  4.23914468998861510007e-05 30
1.87499999999999993061e-02  9.37500000000000000000e-01  1.14425679878472491557e-02  4.25560538114995445813e-05 30
2.50000000000000013878e-02  9.37500000000000000000e-01  1.52639059960858573806e-02  4.27042545536725909328e-05 30
3.12500000000000000000e-02  9.37500000000000000000e-01  1.90793594780014549861e-02  4.28359919925902499216e-05 30
3.74999999999999986122e-02  9.37500000000000000000e-01  2.28874575036451914645e-02  4.29512153420491538114e-05 30
4.37499999999999972244e-02  9.37500000000000000000e-01  2.66867319787390047670e-02  4.30498801799773789245e-05 30
5.00000000000000027756e-02  9.37500000000000000000e-01  3.04757182106509781627e-02  4.31319484684757059600e-05 30
5.62500000000000013878e-02  9.37500000000000000000e-01  3.42529554730572963206e-02  4.31973885734113216550e-05 30
6.25000000000000000000e-02  9.37500000000000000000e-01  3.80169875690981873273e-02  4.32461752584989422843e-05 30
6.87500000000000055511e-02  9.37500000000000000000e-01  4.17663633927441296789e-02  4.32782897204220251552e-05 30
7.49999999999999972244e-02  9.37500000000000000000e-01  4.54996374882378137872e-02  4.32937195830804255614e-05 30
8.12500000000000027756e-02  9.37500000000000000000e-01  4.92153706073650623609e-02  4.32924588822380940201e-05 30
8.74999999999999944489e-02  9.37500000000000000000e-01  5.29121302642536622818e-02  4.32745081264881981120e-05 30
9.37500000000000000000e-02  9.37500000000000000000e-01  5.65884912877050866298e-02  4.32398742159362248216e-05 30
1.00000000000000005551e-01  9.37500000000000000000e-01  6.02430363705566546129e-02  4.31885705080362058972e-05 30
1.06249999999999997224e-01  9.37500000000000000000e-01  6.38743566160935027920e-02  4.31206167993136713079e-05 30
1.12500000000000002776e-01  9.37500000000000000000e-01  6.74810520812740149976e-02  4.30360392488504661657e-05 30
1.18749999999999994449e-01  9.37500000000000000000e-01  7.10617323162933550718e-02  4.29348705093118843124e-05 30
1.25000000000000000000e-01  9.37500000000000000000e-01  7.46150169007910035734e-02  4.28171495517326583524e-05 30
1.31250000000000005551e-01  9.37500000000000000000e-01  7.81395359759244206854e-02  4.26829217551327744218e-05 30
1.37500000000000011102e-01  9.37500000000000000000e-01  8.16339307724614077211e-02  4.25322389033394587798e-05 30
1.43749999999999988898e-01  9.37500000000000000000e-01  8.50968541347397744445e-02  4.23651590366891372952e-05 30
1.49999999999999994449e-01  9.37500000000000000000e-01  8.85269710398303016907e-02  4.21817466210311353692e-05 30
1.56250000000000000000e-01  9.37500000000000000000e-01  9.19229591124231110166e-02  4.19820723129987749545e-05 30
1.62500000000000005551e-01  9.37500000000000000000e-01  9.52835091344060303165e-02  4.17662131554502602526e-05 30
1.68750000000000011102e-01  9.37500000000000000000e-01  9.86073255498712136768e-02  4.15342522695760774099e-05 30
1.74999999999999988898e-01  9.37500000000000000000e-01  1.01893126964194724593e-01  4.12862792047441473642e-05 30
1.81249999999999994449e-01  9.37500000000000000000e-01  1.05139646638508152399e-01  4.10223894344030615144e-05 30
1.87500000000000000000e-01  9.37500000000000000000e-01  1.08345632977558212207e-01  4.07426848115788331484e-05 30
1.93750000000000005551e-01  9.37500000000000000000e-01  1.11509850012707842359e-01  4.04472730423655058019e-05 30
2.00000000000000011102e-01  9.37500000000000000000e-01  1.14631077877941148224e-01  4.01362681288347511455e-05 30
2.06249999999999988898e-01  9.37500000000000000000e-01  1.17708113280593357208e-01  3.98097898767213465021e-05 30
2.12499999999999994449e-01  9.37500000000000000000e-01  1.20739769964828075333e-01  3.94679642642392636276e-05 30
2.18750000000000000000e-01  9.37500000000000000000e-01  1.23724879169437015913e-01  3.91109229179592565728e-05 30
2.25000000000000005551e-01  9.37500000000000000000e-01  1.26662290077854233772e-01  3.87388036275637670514e-05 30
2.31250000000000011102e-01  9.37500000000000000000e-01  1.29550870262387318732e-01  3.83517497231089521392e-05 30
2.37499999999999988898e-01  9.37500000000000000000e-01  1.32389506120212385731e-01  3.79499105973846173612e-05 30
2.43749999999999994449e-01  9.37500000000000000000e-01  1.35177103303398549183e-01  3.75334409388194956136e-05 30
2.50000000000000000000e-01  9.37500000000000000000e-01  1.37912587139951470228e-01  3.71025015202530727976e-05 30
2.56249999999999977796e-01  9.37500000000000000000e-01  1.40594903048916947119e-01  3.66572583399560336659e-05 30
2.62500000000000011102e-01  9.37500000000000000000e-01  1.43223016946452202935e-01  3.61978830473175250404e-05 30
2.68749999999999988898e-01  9.37500000000000000000e-01  1.45795915644485296614e-01  3.57245528762040187587e-05 30
2.75000000000000022204e-01  9.37500000000000000000e-01  1.48312607241759847332e-01  3.52374501354224545224e-05 30
2.81250000000000000000e-01  9.37500000000000000000e-01  1.50772121505654776996e-01  3.47367627151484725800e-05 30
2.87499999999999977796e-01  9.37500000000000000000e-01  1.53173510246620486752e-01  3.42226836218262331357e-05 30
2.93750000000000011102e-01  9.37500000000000000000e-01  1.55515847683707325588e-01  3.36954109202980411908e-05 30
2.99999999999999988898e-01  9.37500000000000000000e-01  1.57798230800896249759e-01  3.31551482327663293859e-05 30
3.06250000000000022204e-01  9.37500000000000000000e-01  1.60019779696540215275e-01  3.26021033489887201995e-05 30
3.12500000000000000000e-01  9.37500000000000000000e-01  1.62179637920841585030e-01  3.20364898875880044216e-05 30
3.18749999999999977796e-01  9.37500000000000000000e-01  1.64276972807515075914e-01  3.14585257283062080802e-05 30
3.25000000000000011102e-01  9.37500000000000000000e-01  1.66310975794031756791e-01  3.08684336929043734443e-05 30
3.31249999999999988898e-01  9.37500000000000000000e-01  1.68280862733485442329e-01  3.02664413089348549590e-05 30
3.37500000000000022204e-01  9.37500000000000000000e-01  1.70185874197047837253e-01  2.96527805705715241658e-05 30
3.43750000000000000000e-01  9.37500000000000000000e-01  1.72025275766442803382e-01  2.90276881490525440199e-05 30
3.49999999999999977796e-01  9.37500000000000000000e-01  1.73798358317295675857e-01  2.83914050844824572550e-05 30
3.56250000000000011102e-01  9.37500000000000000000e-01  1.75504438292768016883e-01  2.77441764390262690654e-05 30
3.62499999999999988898e-01  9.37500000000000000000e-01  1.77142857966231109801e-01  2.70862520530545936026e-05 30
3.68750000000000022204e-01  9.37500000000000000000e-01  1.78712985696055121076e-01  2.64178852259766561161e-05 30
3.75000000000000000000e-01  9.37500000000000000000e-01  1.80214216167721236195e-01  2.57393340160616546086e-05 30
3.81249999999999977796e-01  9.37500000000000000000e-01  1.81645970628683844916e-01  2.50508596393028692972e-05 30
3.87500000000000011102e-01  9.37500000000000000000e-01  1.83007697110191075440e-01  2.43527276682364846039e-05 30
3.93749999999999988898e-01  9.37500000000000000000e-01  1.84298870640632023177e-01  2.36452073765491821433e-05 30
4.00000000000000022204e-01  9.37500000000000000000e-01  1.85518993448326868778e-01  2.29285712320947965281e-05 30
4.06250000000000000000e-01  9.37500000000000000000e-01  1.86667595152322979279e-01  2.22030958958729929265e-05 30
4.12499999999999977796e-01  9.37500000000000000000e-01  1.87744232945173589178e-01  2.14690606776535286571e-05 30
4.18750000000000011102e-01  9.37500000000000000000e-01  1.88748491762257969429e-01  2.07267488188667137194e-05 30
4.24999999999999988898e-01  9.37500000000000000000e-01  1.89679984442785776189e-01  1.99764463942875281077e-05 30
4.31250000000000022204e-01  9.37500000000000000000e-01  1.90538351878622280733e-01  1.92184426343888770106e-05 30
4.37500000000000000000e-01  9.37500000000000000000e-01  1.91323263152717110147e-01  1.84530298281138094296e-05 30
4.43749999999999977796e-01  9.37500000000000000000e-01  1.92034415666852503746e-01  1.76805030367988003093e-05 30
4.50000000000000011102e-01  9.37500000000000000000e-01  1.92671535258344794883e-01  1.69011599363555475861e-05 30
4.56249999999999988898e-01  9.37500000000000000000e-01  1.93234376305032456989e-01  1.61153014091586221923e-05 30
4.62500000000000022204e-01  9.37500000000000000000e-01  1.93722721821583704349e-01  1.53232298128191946063e-05 30
4.68750000000000000000e-01  9.37500000000000000000e-01  1.94136383541002571773e-01  1.45252510092286346577e-05 30
4.74999999999999977796e-01  9.37500000000000000000e-01  1.94475201989039253592e-01  1.37216724170330373056e-05 30
4.81250000000000011102e-01  9.37500000000000000000e-01  1.94739046544725291632e-01  1.29128038380554865938e-05 30
4.87499999999999988898e-01  9.37500000000000000000e-01  1.94927815490913924901e-01  1.20989571545382368356e-05 30
4.93750000000000022204e-01  9.37500000000000000000e-01  1.95041436053688066465e-01  1.12804460148940854936e-05 30
5.00000000000000000000e-01  9.37500000000000000000e-01  1.95079864430041105550e-01  1.04575860875033566089e-05 30
5.06249999999999977796e-01  9.37500000000000000000e-01  1.95043085805060634197e-01  9.63069464232635397138e-06 30
5.12499999999999955591e-01  9.37500000000000000000e-01  1.94931114357845852725e-01  8.80009022261041273794e-06 30
5.18750000000000044409e-01  9.37500000000000000000e-01  1.94743993255147573862e-01  7.96609341577325658079e-06 30
5.25000000000000022204e-01  9.37500000000000000000e-01  1.94481794636147564681e-01  7.12902530872194795108e-06 30
5.31250000000000000000e-01  9.37500000000000000000e-01  1.94144619583094563131e-01  6.28920891726503228369e-06 30
5.37499999999999977796e-01  9.37500000000000000000e-01  1.93732598083406398759e-01  5.44696799012478471980e-06 30
5.43749999999999955591e-01  9.37500000000000000000e-01  1.93245888979473062763e-01  4.60262696855284758612e-06 30
5.50000000000000044409e-01  9.37500000000000000000e-01  1.92684679906509809255e-01  3.75651177131341995619e-06 30
5.56250000000000022204e-01  9.37500000000000000000e-01  1.92049187221729755759e-01  2.90894815954678698233e-06 30
5.62500000000000000000e-01  9.37500000000000000000e-01  1.91339655919235879233e-01  2.06026330934472312606e-06 30
5.68749999999999977796e-01  9.37500000000000000000e-01  1.90556359537300490370e-01  1.21078395617923995076e-06 30
5.74999999999999955591e-01  9.37500000000000000000e-01  1.89699600051094513509e-01  3.60838085577963596506e-07 30
5.81250000000000044409e-01  9.37500000000000000000e-01  1.88769707758340288262e-01  4.89247263452119440785e-07 30
5.87500000000000022204e-01  9.37500000000000000000e-01  1.87767041149462576843e-01  1.33914361133413706284e-06 30
5.93750000000000000000e-01  9.37500000000000000000e-01  1.86691986772314383325e-01  2.18852409553105253792e-06 30
5.99999999999999977796e-01  9.37500000000000000000e-01  1.85544959079852356254e-01  3.03706029336492377979e-06 30
6.06249999999999955591e-01  9.37500000000000000000e-01  1.84326400274175350447e-01  3.88442616675033214335e-06 30
6.12500000000000044409e-01  9.37500000000000000000e-01  1.83036780132123017006e-01  4.73029426370508154776e-06 30
6.18750000000000022204e-01  9.37500000000000000000e-01  1.81676595827217068901e-01  5.57433889389336023612e-06 30
6.25000000000000000000e-01  9.37500000000000000000e-01  1.80246371736071803182e-01  6.41623433450533298128e-06 30
6.31249999999999977796e-01  9.37500000000000000000e-01  1.78746659237747157478e-01  7.25565646605974556849e-06 30
6.37499999999999955591e-01  9.37500000000000000000e-01  1.77178036499254398795e-01  8.09228097020664449701e-06 30
6.43750000000000044409e-01  9.37500000000000000000e-01  1.75541108255414218808e-01  8.92578620720341220363e-06 30
6.50000000000000022204e-01  9.37500000000000000000e-01  1.73836505572480065629e-01  9.75585009987955942279e-06 30
6.56250000000000000000e-01  9.37500000000000000000e-01  1.72064885607605522200e-01  1.05821530136385177912e-05 30
6.62499999999999977796e-01  9.37500000000000000000e-01  1.70226931353933602642e-01  1.14043763151661092792e-05 30
6.68749999999999955591e-01  9.37500000000000000000e-01  1.68323351377782870486e-01  1.22222029884377914044e-05 30
6.75000000000000044409e-01  9.37500000000000000000e-01  1.66354879545530826013e-01  1.30353178061370922336e-05 30
6.81250000000000022204e-01  9.37500000000000000000e-01  1.64322274740349771882e-01  1.38434071063897601306e-05 30
6.87500000000000000000e-01  9.37500000000000000000e-01  1.62226320570560383905e-01  1.46461598311831142638e-05 30
6.93749999999999977796e-01  9.37500000000000000000e-01  1.60067825065756536018e-01  1.54432658673320233333e-05 30
6.99999999999999955591e-01  9.37500000000000000000e-01  1.57847620367572910594e-01  1.62344184438945049465e-05 30
7.06250000000000044409e-01  9.37500000000000000000e-01  1.55566562406790231954e-01  1.70193121626083243569e-05 30
7.12500000000000022204e-01  9.37500000000000000000e-01  1.53225530574976454012e-01  1.77976447341410271008e-05 30
7.18750000000000000000e-01  9.37500000000000000000e-01  1.50825427384256388619e-01  1.85691158864353944580e-05 30
7.24999999999999977796e-01  9.37500000000000000000e-01  1.48367178120329984425e-01  1.93334284347146390104e-05 30
7.31249999999999955591e-01  9.37500000000000000000e-01  1.45851730484733765891e-01  2.00902873721819918984e-05 30
7.37500000000000044409e-01  9.37500000000000000000e-01  1.43280054230906533919e-01  2.08394014070134581118e-05 30
7.43750000000000022204e-01  9.37500000000000000000e-01  1.40653140788358249624e-01  2.15804811012909603107e-05 30
7.50000000000000000000e-01  9.37500000000000000000e-01  1.37972002882955385727e-01  2.23132414836346715248e-05 30
7.56249999999999977796e-01  9.37500000000000000000e-01  1.35237674143629943435e-01  2.30373992925747561600e-05 30
7.62499999999999955591e-01  9.37500000000000000000e-01  1.32451208706894252298e-01  2.37526760844264384076e-05 30
7.68750000000000044409e-01  9.37500000000000000000e-01  1.29613680807694447994e-01  2.44587955840480653080e-05 30
7.75000000000000022204e-01  9.37500000000000000000e-01  1.26726184367338762238e-01  2.51554858569646988542e-05 30
7.81250000000000000000e-01  9.37500000000000000000e-01  1.23789832570445165749e-01  2.58424780901905792874e-05 30
7.87499999999999977796e-01  9.37500000000000000000e-01  1.20805757436834568241e-01  2.65195077422120117916e-05 30
7.93749999999999955591e-01  9.37500000000000000000e-01  1.17775109383796358631e-01  2.71863133262661982315e-05 30
8.00000000000000044409e-01  9.37500000000000000000e-01  1.14699056784448888413e-01  2.78426383788915599027e-05 30
8.06250000000000022204e-01  9.37500000000000000000e-01  1.11578785515120584848e-01  2.84882293703769828852e-05 30
8.12500000000000000000e-01  9.37500000000000000000e-01  1.08415498500042908891e-01  2.91228376731178517645e-05 30
8.18749999999999977796e-01  9.37500000000000000000e-01  1.05210415246508787179e-01  2.97462185661900857525e-05 30
8.24999999999999955591e-01  9.37500000000000000000e-01  1.01964771375114310326e-01  3.03581317148277074480e-05 30
8.31250000000000044409e-01  9.37500000000000000000e-01  9.86798181433867355183e-02  3.09583412459457640864e-05 30
8.37500000000000022204e-01  9.37500000000000000000e-01  9.53568219632165009481e-02  3.15466156550342491371e-05 30
8.43750000000000000000e-01  9.37500000000000000000e-01  9.19970639131680867351e-02  3.21227284319353101338e-05 30
8.49999999999999977796e-01  9.37500000000000000000e-01  8.86018392435554968944e-02  3.26864571041501905668e-05 30
8.56249999999999955591e-01  9.37500000000000000000e-01  8.51724568783847196807e-02  3.32375846081728321124e-05 30
8.62500000000000044409e-01  9.37500000000000000000e-01  8.17102389097925652095e-02  3.37758984278596630091e-05 30
8.68750000000000022204e-01  9.37500000000000000000e-01  7.82165200885449607426e-02  3.43011908653656494295e-05 30
8.75000000000000000000e-01  9.37500000000000000000e-01  7.46926473099838589276e-02  3.48132596410949401999e-05 30
8.81249999999999977796e-01  9.37500000000000000000e-01  7.11399790940520776461e-02  3.53119072494106900351e-05 30
8.87499999999999955591e-01  9.37500000000000000000e-01  6.75598850618838869808e-02  3.57969413609521280861e-05 30
8.93750000000000044409e-01  9.37500000000000000000e-01  6.39537454080985057203e-02  3.62681752057170125880e-05 30
9.00000000000000022204e-01  9.37500000000000000000e-01  6.03229503678779921394e-02  3.67254268132805039571e-05 30
9.06250000000000000000e-01  9.37500000000000000000e-01  5.66688996821317417241e-02  3.71685202107119305737e-05 30
9.12499999999999977796e-01  9.37500000000000000000e-01  5.29930020567401516285e-02  3.75972843599386985503e-05 30
9.18749999999999955591e-01  9.37500000000000000000e-01  4.92966746203025787954e-02  3.80115540552367070504e-05 30
9.25000000000000044409e-01  9.37500000000000000000e-01  4.55813423774127784993e-02  3.84111695918565310137e-05 30
9.31250000000000022204e-01  9.37500000000000000000e-01  4.18484376593485016271e-02  3.87959768839568619470e-05 30
9.37500000000000000000e-01  9.37500000000000000000e-01  3.80993995719183797810e-02  3.91658275616241224881e-05 30
9.43749999999999977796e-01  9.37500000000000000000e-01  3.43356734407440772339e-02  3.95205791133210193600e-05 30
9.49999999999999955591e-01  9.37500000000000000000e-01  3.05587102537860956508e-02  3.98600946666209654534e-05 30
9.56250000000000044409e-01  9.37500000000000000000e-01  2.67699661023890859990e-02  4.01842434701003836661e-05 30
9.62500000000000022204e-01  9.37500000000000000000e-01  2.29709016194113296860e-02  4.04929004241064149916e-05 30
9.68750000000000000000e-01  9.37500000000000000000e-01  1.91629814166177601942e-02  4.07859466236733247957e-05 30
9.74999999999999977796e-01  9.37500000000000000000e-01  1.53476735196924705257e-02  4.10632690529162680537e-05 30
9.81249999999999955591e-01  9.37500000000000000000e-01  1.15264488024702065061e-02  4.13247608113693348786e-05 30
9.87500000000000044409e-01  9.37500000000000000000e-01  7.70078041982405047533e-03  4.15703210934949968225e-05 30
9.93750000000000022204e-01  9.37500000000000000000e-01  3.85139687982913488107e-03  2.10534953194777517405e-05 30
1.00000000000000000000e+00  9.37500000000000000000e-01  0.00000000000000000000e+00  2.38916738401678297760e-17 30
0.00000000000000000000e+00  9.43749999999999977796e-01  0.00000000000000000000e+00  0.00000000000000000000e+00 30
6.25000000000000034694e-03  9.43749999999999977796e-01  3.43000733840518072168e-03  2.15227575484618419144e-05 30
1.25000000000000006939e-02  9.43749999999999977796e-01  6.85922285903306679089e-03  4.25067023193496928979e-05 30
1.87499999999999993061e-02  9.43749999999999977796e-01  1.03066174020260969968e-02  4.26508765987623078564e-05 30
2.50000000000000013878e-02  9.43749999999999977796e-01  1.37500385478145793067e-02  4.27786081539857643286e-05 30
3.12500000000000000000e-02  9.43749999999999977796e-01  1.71881587919991626889e-02  4.28898477412044398793e-05 30
3.74999999999999986122e-02  9.43749999999999977796e-01  2.06196526737781188343e-02  4.29845524754224328490e-05 30
4.37499999999999972244e-02  9.43749999999999977796e-01  2.40431972869387389213e-02  4.30626858459702555049e-05 30
5.00000000000000027756e-02  9.43749999999999977796e-01  2.74574727898604271925e-02  4.31242177330280751502e-05 30
5.62500000000000013878e-02  9.43749999999999977796e-01  3.08611629143456765723e-02  4.31691244122955897211e-05 30
6.25000000000000000000e-02  9.43749999999999977796e-01  3.42529554730605992341e-02  4.31973885700875914750e-05 30
6.87500000000000055511e-02  9.43749999999999977796e-01  3.76315428653990341479e-02  4.32089993191095422809e-05 30
7.49999999999999972244e-02  9.43749999999999977796e-01  4.09956225816249589244e-02  4.32039521650814939413e-05 30
8.12500000000000027756e-02  9.43749999999999977796e-01  4.43438977049429791655e-02  4.31822490804187331115e-05 30
8.74999999999999944489e-02  9.43749999999999977796e-01  4.76750774115911879480e-02  4.31438983965887201677e-05 30
9.37500000000000000000e-02  9.43749999999999977796e-01  5.09878774683430041614e-02  4.30889149362692625012e-05 30
1.00000000000000005551e-01  9.43749999999999977796e-01  5.42810207277347536725e-02  4.30173198764233211122e-05 30
1.06249999999999997224e-01  9.43749999999999977796e-01  5.75532376203641976575e-02  4.29291408061763246629e-05 30
1.12500000000000002776e-01  9.43749999999999977796e-01  6.08032666442914274119e-02  4.28244117585616090871e-05 30
1.18749999999999994449e-01  9.43749999999999977796e-01  6.40298548515050164331e-02  4.27031730641791451575e-05 30
1.25000000000000000000e-01  9.43749999999999977796e-01  6.72317583307956156968e-02  4.25654714974188497223e-05 30
1.31250000000000005551e-01  9.43749999999999977796e-01  7.04077426874404749269e-02  4.24113601252967820088e-05 30
1.37500000000000011102e-01  9.43749999999999977796e-01  7.35565835190101907637e-02  4.22408983630079282179e-05 30
1.43749999999999988898e-01  9.43749999999999977796e-01  7.66770668874148936256e-02  4.20541519351308457075e-05 30
1.49999999999999994449e-01  9.43749999999999977796e-01  7.97679897869173343272e-02  4.18511928336195992983e-05 30
1.56250000000000000000e-01  9.43749999999999977796e-01  8.28281606079070698012e-02  4.16320992973617798327e-05 30
1.62500000000000005551e-01  9.43749999999999977796e-01  8.58563995962823844899e-02  4.13969557882531979942e-05 30
1.68750000000000011102e-01  9.43749999999999977796e-01  8.88515393082372761935e-02  4.11458529894354052558e-05 30
1.74999999999999988898e-01  9.43749999999999977796e-01  9.18124250604612779370e-02  4.08788876422178093506e-05 30
1.81249999999999994449e-01  9.43749999999999977796e-01  9.47379153750722569072e-02  4.05961627284595616416e-05 30
1.87500000000000000000e-01  9.43749999999999977796e-01  9.76268824198988222074e-02  4.02977872098475575768e-05 30
1.93750000000000005551e-01  9.43749999999999977796e-01  1.00478212443114681141e-01  3.99838761523246821739e-05 30
2.00000000000000011102e-01  9.43749999999999977796e-01  1.03290806202774809730e-01  3.96545505181172819320e-05 30
2.06249999999999988898e-01  9.43749999999999977796e-01  1.06063579390379331135e-01  3.93099373338645641240e-05 30
2.12499999999999994449e-01  9.43749999999999977796e-01  1.08795463049173007919e-01  3.89501693637828161343e-05 30
2.18750000000000000000e-01  9.43749999999999977796e-01  1.11485403985872061350e-01  3.85753854348080960079e-05 30
2.25000000000000005551e-01  9.43749999999999977796e-01  1.14132365177175898463e-01  3.81857298974025427540e-05 30
2.31250000000000011102e-01  9.43749999999999977796e-01  1.16735326169023392873e-01  3.77813531058784901617e-05 30
2.37499999999999988898e-01  9.43749999999999977796e-01  1.19293283470582447969e-01  3.73624107752601464227e-05 30
2.43749999999999994449e-01  9.43749999999999977796e-01  1.21805250940392725822e-01  3.69290646434761171690e-05 30
2.50000000000000000000e-01  9.43749999999999977796e-01  1.24270260167370930060e-01  3.64814815798919500622e-05 30
2.56249999999999977796e-01  9.43749999999999977796e-01  1.26687360843452723191e-01  3.60198342200246379718e-05 30
2.62500000000000011102e-01  9.43749999999999977796e-01  1.29055621130266112706e-01  3.55443005874978013026e-05 30
2.68749999999999988898e-01  9.43749999999999977796e-01  1.31374128018582475574e-01  3.50550638157087757207e-05 30
2.75000000000000022204e-01  9.43749999999999977796e-01  1.33641987679597229466e-01  3.45523127791291795319e-05 30
2.81250000000000000000e-01  9.43749999999999977796e-01  1.35858325810404967360e-01  3.40362411332117975604e-05 30
2.87499999999999977796e-01  9.43749999999999977796e-01  1.38022287970492874010e-01  3.35070478068577592978e-05 30
2.93750000000000011102e-01  9.43749999999999977796e-01  1.40133039911066431538e-01  3.29649370031104282930e-05 30
2.99999999999999988898e-01  9.43749999999999977796e-01  1.42189767897359792270e-01  3.24101174287438897892e-05 30
3.06250000000000022204e-01  9.43749999999999977796e-01  1.44191679021233087887e-01  3.18428033268258747768e-05 30
3.12500000000000000000e-01  9.43749999999999977796e-01  1.46138001508180237487e-01  3.12632130674006525339e-05 30
3.18749999999999977796e-01  9.43749999999999977796e-01  1.48027985013669788339e-01  3.06715702563520320467e-05 30
3.25000000000000011102e-01  9.43749999999999977796e-01  1.49860900913022371261e-01  3.00681030438454399700e-05 30
3.31249999999999988898e-01  9.43749999999999977796e-01  1.51636042582383223642e-01  2.94530439622908701836e-05 30
3.37500000000000022204e-01  9.43749999999999977796e-01  1.53352725670798106794e-01  2.88266301780859546255e-05 30
3.43750000000000000000e-01  9.43749999999999977796e-01  1.55010288364266030081e-01  2.81891031774228473239e-05 30
3.49999999999999977796e-01  9.43749999999999977796e-01  1.56608091640868224426e-01  2.75407086864909445012e-05 30
3.56250000000000011102e-01  9.43749999999999977796e-01  1.58145519516805777016e-01  2.68816968938823119828e-05 30
3.62499999999999988898e-01  9.43749999999999977796e-01  1.59621979284710086011e-01  2.62123215172549439700e-05 30
3.68750000000000022204e-01  9.43749999999999977796e-01  1.61036901740994414789e-01  2.55328408542143669990e-05 30
3.75000000000000000000e-01  9.43749999999999977796e-01  1.62389741406190141193e-01  2.48435167848060078910e-05 30
3.81249999999999977796e-01  9.43749999999999977796e-01  1.63679976734823706686e-01  2.41446150867907771698e-05 30
3.87500000000000011102e-01  9.43749999999999977796e-01  1.64907110316611260625e-01  2.34364052039970349739e-05 30
3.93749999999999988898e-01  9.43749999999999977796e-01  1.66070669068297371851e-01  2.27191600648546376817e-05 30
4.00000000000000022204e-01  9.43749999999999977796e-01  1.67170204415637929651e-01  2.19931563770758842224e-05 30
4.06250000000000000000e-01  9.43749999999999977796e-01  1.68205292467104888798e-01  2.12586737499131928075e-05 30
4.12499999999999977796e-01  9.43749999999999977796e-01  1.69175534176250225160e-01  2.05159956407352517260e-05 30
4.18750000000000011102e-01  9.43749999999999977796e-01  1.70080555496610857924e-01  1.97654081809384152280e-05 30
4.24999999999999988898e-01  9.43749999999999977796e-01  1.70920007525291101080e-01  1.90072006850672270417e-05 30
4.31250000000000022204e-01  9.43749999999999977796e-01  1.71693566637328626223e-01  1.82416656821782208198e-05 30
4.37500000000000000000e-01  9.43749999999999977796e-01  1.72400934611127570895e-01  1.74690981333269768072e-05 30
4.43749999999999977796e-01  9.43749999999999977796e-01  1.73041838742911152638e-01  1.66897958355505249273e-05 30
4.50000000000000011102e-01  9.43749999999999977796e-01  1.73616031951696253577e-01  1.59040594648884869855e-05 30
4.56249999999999988898e-01  9.43749999999999977796e-01  1.74123292875430324411e-01  1.51121915779039994732e-05 30
4.62500000000000022204e-01  9.43749999999999977796e-01  1.74563425954939316354e-01  1.43144978866083238955e-05 30
4.68750000000000000000e-01  9.43749999999999977796e-01  1.74936261510962309806e-01  1.35112854975083518383e-05 30
4.74999999999999977796e-01  9.43749999999999977796e-01  1.75241655808089674684e-01  1.27028642698256977184e-05 30
4.81250000000000011102e-01  9.43749999999999977796e-01  1.75479491110941104859e-01  1.18895459306489481577e-05 30
4.87499999999999988898e-01  9.43749999999999977796e-01  1.75649675729614845876e-01  1.10716438947722206620e-05 30
4.93750000000000022204e-01  9.43749999999999977796e-01  1.75752144054643844040e-01  1.02494735359504041128e-05 30
5.00000000000000000000e-01  9.43749999999999977796e-01  1.75786856582578282504e-01  9.42335177644970656274e-06 30
5.06249999999999977796e-01  9.43749999999999977796e-01  1.75753799931045839866e-01  8.59359713395457802676e-06 30
5.12499999999999955591e-01  9.43749999999999977796e-01  1.75652986843842590092e-01  7.76052966702800439691e-06 30
5.18750000000000044409e-01  9.43749999999999977796e-01  1.75484456186794979260e-01  6.92447007677454706709e-06 30
5.25000000000000022204e-01  9.43749999999999977796e-01  1.75248272931163323607e-01  6.08574119617677489202e-06 30
5.31250000000000000000e-01  9.43749999999999977796e-01  1.74944528130347026762e-01  5.24466611279139627300e-06 30
5.37499999999999977796e-01  9.43749999999999977796e-01  1.74573338883788564679e-01  4.40156903735999804894e-06 30
5.43749999999999955591e-01  9.43749999999999977796e-01  1.74134848291969124290e-01  3.55677503910412085020e-06 30
5.50000000000000044409e-01  9.43749999999999977796e-01  1.73629225401129211326e-01  2.71061003190298244192e-06 30
5.56250000000000022204e-01  9.43749999999999977796e-01  1.73056665138971804696e-01  1.86339977489846653214e-06 30
5.62500000000000000000e-01  9.43749999999999977796e-01  1.72417388237874363854e-01  1.01547138653401702868e-06 30
5.68749999999999977796e-01  9.43749999999999977796e-01  1.71711641151712779418e-01  1.67151298025025596417e-07 30
5.74999999999999955591e-01  9.43749999999999977796e-01  1.70939695959010873327e-01  6.81233034677264370771e-07 30
5.81250000000000044409e-01  9.43749999999999977796e-01  1.70101850259664122422e-01  1.52935487232608302577e-06 30
5.87500000000000022204e-01  9.43749999999999977796e-01  1.69198427058856487593e-01  2.37688696552718070620e-06 30
5.93750000000000000000e-01  9.43749999999999977796e-01  1.68229774643750801255e-01  3.22350289599926398409e-06 30
5.99999999999999977796e-01  9.43749999999999977796e-01  1.67196266448202679467e-01  4.06887618764617542411e-06 30
6.06249999999999955591e-01  9.43749999999999977796e-01  1.66098300908867957393e-01  4.91268050570314862568e-06 30
6.12500000000000044409e-01  9.43749999999999977796e-01  1.64936301313010014180e-01  5.75459119478427538752e-06 30
6.18750000000000022204e-01  9.43749999999999977796e-01  1.63710715633056530516e-01  6.59428314603305310015e-06 30
6.25000000000000000000e-01  9.43749999999999977796e-01  1.62422016356154885752e-01  7.43143317993855134773e-06 30