Titile = 'Poisson'  
VARIABLES = X, Y, U, Error, Rank 
zone N= 966, E = 1600
DATAPACKING=POINT, ZONETYPE=FETRIANGLE
0.00000000000000000000e+00  2.18750000000000000000e-01  0.00000000000000000000e+00  0.00000000000000000000e+00 7
6.25000000000000034694e-03  2.18750000000000000000e-01  1.24715702133276779701e-02  1.60875729706844855516e-05 7
1.25000000000000006939e-02  2.18750000000000000000e-01  2.49379158174197375353e-02  3.17523623645579733399e-05 7
1.87499999999999993061e-02  2.18750000000000000000e-01  3.73782960407748610088e-02  3.10535711439199890727e-05 7
2.50000000000000013878e-02  2.18750000000000000000e-01  4.98042662194779911511e-02  3.03428081805875993204e-05 7
3.12500000000000000000e-02  2.18750000000000000000e-01  6.22110359054855732719e-02  2.96203474867140492677e-05 7
3.74999999999999986122e-02  2.18750000000000000000e-01  7.45938220529104301093e-02  2.88864675850875052276e-05 7
4.37499999999999972244e-02  2.18750000000000000000e-01  8.69478508619763307275e-02  2.81414514011063543464e-05 7
5.00000000000000027756e-02  2.18750000000000000000e-01  9.92683596194048750716e-02  2.73855861498278896349e-05 7
5.62500000000000013878e-02  2.18750000000000000000e-01  1.11550598534543674023e-01  2.66191632369433550664e-05 7
6.25000000000000000000e-02  2.18750000000000000000e-01  1.23789832570482774554e-01  2.58424781280214288515e-05 7
6.87500000000000055511e-02  2.18750000000000000000e-01  1.35981343269519078243e-01  2.50558302521408649000e-05 7
7.49999999999999972244e-02  2.18750000000000000000e-01  1.48120430572201172703e-01  2.42595228761577352827e-05 7
8.12500000000000027756e-02  2.18750000000000000000e-01  1.60202414629295269988e-01  2.34538629911851259635e-05 7
8.74999999999999944489e-02  2.18750000000000000000e-01  1.72222637605962458629e-01  2.26391612006271447655e-05 7
9.37500000000000000000e-02  2.18750000000000000000e-01  1.84176465477419337713e-01  2.18157315770850512848e-05 7
1.00000000000000005551e-01  2.18750000000000000000e-01  1.96059289815479681485e-01  2.09838915780358181706e-05 7
1.06249999999999997224e-01  2.18750000000000000000e-01  2.07866529565147256653e-01  2.01439618796317443383e-05 7
1.12500000000000002776e-01  2.18750000000000000000e-01  2.19593632810763023100e-01  1.92962663163320780058e-05 7
1.18749999999999994449e-01  2.18750000000000000000e-01  2.31236078530762195760e-01  1.84411316628829702324e-05 7
1.25000000000000000000e-01  2.18750000000000000000e-01  2.42789378340710987336e-01  1.75788876053684095524e-05 7
1.31250000000000005551e-01  2.18750000000000000000e-01  2.54249078223600877280e-01  1.67098665506126842217e-05 7
1.37500000000000011102e-01  2.18750000000000000000e-01  2.65610760246992316791e-01  1.58344035334212485111e-05 7
1.43749999999999988898e-01  2.18750000000000000000e-01  2.76870044266164683222e-01  1.49528360404715954246e-05 7
1.49999999999999994449e-01  2.18750000000000000000e-01  2.88022589612817958571e-01  1.40655039522763480875e-05 7
1.56250000000000000000e-01  2.18750000000000000000e-01  2.99064096768396348036e-01  1.31727493259958805538e-05 7
1.62500000000000005551e-01  2.18750000000000000000e-01  3.09990309021768828401e-01  1.22749163978808084607e-05 7
1.68750000000000011102e-01  2.18750000000000000000e-01  3.20797014110009159893e-01  1.13723511868113469347e-05 7
1.74999999999999988898e-01  2.18750000000000000000e-01  3.31480045842752868435e-01  1.04654018110439395173e-05 7
1.81249999999999994449e-01  2.18750000000000000000e-01  3.42035285707719072246e-01  9.55441772970688774080e-06 7
1.87500000000000000000e-01  2.18750000000000000000e-01  3.52458664459173842687e-01  8.63975030662711418472e-06 7
1.93750000000000005551e-01  2.18750000000000000000e-01  3.62746163686068878729e-01  7.72175204205582943473e-06 7
2.00000000000000011102e-01  2.18750000000000000000e-01  3.72893817361719392967e-01  6.80077694042990898993e-06 7
2.06249999999999988898e-01  2.18750000000000000000e-01  3.82897713372387982211e-01  5.87717997924119828212e-06 7
2.12499999999999994449e-01  2.18750000000000000000e-01  3.92753995025782509654e-01  4.95131727545894406717e-06 7
2.18750000000000000000e-01  2.18750000000000000000e-01  4.02458862537656392178e-01  4.02354572054397507941e-06 7
2.25000000000000005551e-01  2.18750000000000000000e-01  4.12008574496907364892e-01  3.09422305216910942249e-06 7
2.31250000000000011102e-01  2.18750000000000000000e-01  4.21399449307681250865e-01  2.16370743522098507583e-06 7
2.37499999999999988898e-01  2.18750000000000000000e-01  4.30627866609131493281e-01  1.23235775761898480596e-06 7
2.43749999999999994449e-01  2.18750000000000000000e-01  4.39690268670536066331e-01  3.00532890906701766198e-07 7
2.50000000000000000000e-01  2.18750000000000000000e-01  4.48583161763533799782e-01  6.31407784279502948266e-07 7
2.56249999999999977796e-01  2.18750000000000000000e-01  4.57303117508509882061e-01  1.56310503074408302382e-06 7
2.62500000000000011102e-01  2.18750000000000000000e-01  4.65846774196462809492e-01  2.49419973130660110883e-06 7
2.68749999999999988898e-01  2.18750000000000000000e-01  4.74210838085243224782e-01  3.42433279126863610031e-06 7
2.75000000000000022204e-01  2.18750000000000000000e-01  4.82392084668892606736e-01  4.35314573909995061740e-06 7
2.81250000000000000000e-01  2.18750000000000000000e-01  4.90387359921125476347e-01  5.28028048973894215123e-06 7
2.87499999999999977796e-01  2.18750000000000000000e-01  4.98193581511173433363e-01  6.20537957685129981655e-06 7
2.93750000000000011102e-01  2.18750000000000000000e-01  5.05807739992006455410e-01  7.12808636615935853342e-06 7
2.99999999999999988898e-01  2.18750000000000000000e-01  5.13226899960618099250e-01  8.04804510634582470630e-06 7
3.06250000000000022204e-01  2.18750000000000000000e-01  5.20448201189475656570e-01  8.96490127055837859871e-06 7
3.12500000000000000000e-01  2.18750000000000000000e-01  5.27468859729692929328e-01  9.87830119181243304638e-06 7
3.18749999999999977796e-01  2.18750000000000000000e-01  5.34286168983568843238e-01  1.07878929266336243131e-05 7
3.25000000000000011102e-01  2.18750000000000000000e-01  5.40897500748797277481e-01  1.16933256256723794309e-05 7
3.31249999999999988898e-01  2.18750000000000000000e-01  5.47300306230969368926e-01  1.25942503880205336486e-05 7
3.37500000000000022204e-01  2.18750000000000000000e-01  5.53492117026754604225e-01  1.34903198243385702426e-05 7
3.43750000000000000000e-01  2.18750000000000000000e-01  5.59470546075189534285e-01  1.43811885179312426430e-05 7
3.49999999999999977796e-01  2.18750000000000000000e-01  5.65233288578232739852e-01  1.52665128605455890920e-05 7
3.56250000000000011102e-01  2.18750000000000000000e-01  5.70778122888684347203e-01  1.61459518089879239255e-05 7
3.62499999999999988898e-01  2.18750000000000000000e-01  5.76102911367540659882e-01  1.70191661490459722472e-05 7
3.68750000000000022204e-01  2.18750000000000000000e-01  5.81205601207514410689e-01  1.78858192066977395029e-05 7
3.75000000000000000000e-01  2.18750000000000000000e-01  5.86084225224304034008e-01  1.87455771046840524718e-05 7
3.81249999999999977796e-01  2.18750000000000000000e-01  5.90736902615826120488e-01  1.95981080460816414757e-05 7
3.87500000000000011102e-01  2.18750000000000000000e-01  5.95161839686074389810e-01  2.04430836683311412116e-05 7
3.93749999999999988898e-01  2.18750000000000000000e-01  5.99357330537774735113e-01  2.12801780178351052086e-05 7
4.00000000000000022204e-01  2.18750000000000000000e-01  6.03321757729228136391e-01  2.21090684899838407773e-05 7
4.06250000000000000000e-01  2.18750000000000000000e-01  6.07053592898333826966e-01  2.29294354837650260492e-05 7
4.12499999999999977796e-01  2.18750000000000000000e-01  6.10551397351586810913e-01  2.37409627404927547900e-05 7
4.18750000000000011102e-01  2.18750000000000000000e-01  6.13813822618834437073e-01  2.45433373532444321086e-05 7
4.24999999999999988898e-01  2.18750000000000000000e-01  6.16839610972793161991e-01  2.53362502313780879604e-05 7
4.31250000000000022204e-01  2.18750000000000000000e-01  6.19627595914932216559e-01  2.61193952136862250768e-05 7
4.37500000000000000000e-01  2.18750000000000000000e-01  6.22176702623481348020e-01  2.68924708859419325790e-05 7
4.43749999999999977796e-01  2.18750000000000000000e-01  6.24485948369506549405e-01  2.76551789863965780114e-05 7
4.50000000000000011102e-01  2.18750000000000000000e-01  6.26554442894903806938e-01  2.84072253868838942026e-05 7
4.56249999999999988898e-01  2.18750000000000000000e-01  6.28381388755511083311e-01  2.91483203060938222961e-05 7
4.62500000000000022204e-01  2.18750000000000000000e-01  6.29966081628911100943e-01  2.98781780484480563587e-05 7
4.68750000000000000000e-01  2.18750000000000000000e-01  6.31307910585969356276e-01  3.05965171054634055281e-05 7
4.74999999999999977796e-01  2.18750000000000000000e-01  6.32406358325916073682e-01  3.13030607079767264622e-05 7
4.81250000000000011102e-01  2.18750000000000000000e-01  6.33261001376434817800e-01  3.19975362725877232606e-05 7
4.87499999999999988898e-01  2.18750000000000000000e-01  6.33871510256177495002e-01  3.26796762490921821609e-05 7
4.93750000000000022204e-01  2.18750000000000000000e-01  6.34237649602424236051e-01  3.33492175845773175524e-05 7
5.00000000000000000000e-01  2.18750000000000000000e-01  6.34359278261479753169e-01  3.40059021657346249867e-05 7
5.06249999999999977796e-01  2.18750000000000000000e-01  6.34236349343195837669e-01  3.46494768129756991470e-05 7
5.12499999999999955591e-01  2.18750000000000000000e-01  6.33868910239046567945e-01  3.52796933800192391573e-05 7
5.18750000000000044409e-01  2.18750000000000000000e-01  6.33257102603664745466e-01  3.58963090426600572869e-05 7
5.25000000000000022204e-01  2.18750000000000000000e-01  6.32401162300699426488e-01  3.64990859246239196523e-05 7
5.31250000000000000000e-01  2.18750000000000000000e-01  6.31301419311278255719e-01  3.70877917966749848233e-05 7
5.37499999999999977796e-01  2.18750000000000000000e-01  6.29958297607436934484e-01  3.76621995226145145352e-05 7
5.43749999999999955591e-01  2.18750000000000000000e-01  6.28372314987971414268e-01  3.82220878457628643332e-05 7
5.50000000000000044409e-01  2.18750000000000000000e-01  6.26544082879532227004e-01  3.87672407583528055852e-05 7
5.56250000000000022204e-01  2.18750000000000000000e-01  6.24474306100394005448e-01  3.92974480989405350329e-05 7
5.62500000000000000000e-01  2.18750000000000000000e-01  6.22163782588693314857e-01  3.98125056739750959878e-05 7
5.68749999999999977796e-01  2.18750000000000000000e-01  6.19613403095463755044e-01  4.03122146821477400636e-05 7
5.74999999999999955591e-01  2.18750000000000000000e-01  6.16824150840463936163e-01  4.07963825607149388475e-05 7
5.81250000000000044409e-01  2.18750000000000000000e-01  6.13797101133378597559e-01  4.12648228090839452875e-05 7
5.87500000000000022204e-01  2.18750000000000000000e-01  6.10533420959902484171e-01  4.17173544248194971829e-05 7
5.93750000000000000000e-01  2.18750000000000000000e-01  6.07034368530420587184e-01  4.21538033970048076071e-05 7
5.99999999999999977796e-01  2.18750000000000000000e-01  6.03301292796485144621e-01  4.25740012329756112308e-05 7
6.06249999999999955591e-01  2.18750000000000000000e-01  5.99335632929962280890e-01  4.29777858302893278619e-05 7
6.12500000000000044409e-01  2.18750000000000000000e-01  5.95138917767707442685e-01  4.33650020351672438323e-05 7
6.18750000000000022204e-01  2.18750000000000000000e-01  5.90712765224107094753e-01  4.37354997652183996593e-05 7
6.25000000000000000000e-01  2.18750000000000000000e-01  5.86058881664439534909e-01  4.40891369691831513933e-05 7
6.31249999999999977796e-01  2.18750000000000000000e-01  5.81179061249903372577e-01  4.44257768177358514095e-05 7
6.37499999999999955591e-01  2.18750000000000000000e-01  5.76075185244118825878e-01  4.47452895709909981292e-05 7
6.43750000000000044409e-01  2.18750000000000000000e-01  5.70749221288008090625e-01  4.50475524852445019519e-05 7
6.50000000000000022204e-01  2.18750000000000000000e-01  5.65203222642608915649e-01  4.53324484844808139883e-05 7
6.56250000000000000000e-01  2.18750000000000000000e-01  5.59439327395746865967e-01  4.55998679605995604902e-05 7
6.62499999999999977796e-01  2.18750000000000000000e-01  5.53459757638699811899e-01  4.58497078793529411200e-05 7
6.68749999999999955591e-01  2.18750000000000000000e-01  5.47266818609618566072e-01  4.60818717390454324345e-05 7
6.75000000000000044409e-01  2.18750000000000000000e-01  5.40862897804011866221e-01  4.62962704111946621310e-05 7
6.81250000000000022204e-01  2.18750000000000000000e-01  5.34250464055810669883e-01  4.64928206849180014615e-05 7
6.87500000000000000000e-01  2.18750000000000000000e-01  5.27432066583516157010e-01  4.66714473686957731502e-05 7
6.93749999999999977796e-01  2.18750000000000000000e-01  5.20410334009500874508e-01  4.68320812453404400344e-05 7
6.99999999999999955591e-01  2.18750000000000000000e-01  5.13187973345366921230e-01  4.69746603575238452777e-05 7
7.06250000000000044409e-01  2.18750000000000000000e-01  5.05767768948479412572e-01  4.70991298932021962287e-05 7
7.12500000000000022204e-01  2.18750000000000000000e-01  4.98152581448925824148e-01  4.72054418244605145105e-05 7
7.18750000000000000000e-01  2.18750000000000000000e-01  4.90345346646478830177e-01  4.72935551364961348497e-05 7
7.24999999999999977796e-01  2.18750000000000000000e-01  4.82349074378650544137e-01  4.73634359811625493819e-05 7
7.31249999999999955591e-01  2.18750000000000000000e-01  4.74166847360817433898e-01  4.74150572172815643057e-05 7
7.37500000000000044409e-01  2.18750000000000000000e-01  4.65801819997065935652e-01  4.74483991281249295469e-05 7
7.43750000000000022204e-01  2.18750000000000000000e-01  4.57257217164899532058e-01  4.74634486412051082027e-05 7
7.50000000000000000000e-01  2.18750000000000000000e-01  4.48536332971062878805e-01  4.74602002553115021044e-05 7
7.56249999999999977796e-01  2.18750000000000000000e-01  4.39642529482624444537e-01  4.74386550207150925473e-05 7
7.62499999999999955591e-01  2.18750000000000000000e-01  4.30579235430235796045e-01  4.73988211383002955301e-05 7
7.68750000000000044409e-01  2.18750000000000000000e-01  4.21349944885892502278e-01  4.73407143534165797405e-05 7
7.75000000000000022204e-01  2.18750000000000000000e-01  4.11958215917253733895e-01  4.72643566015173988148e-05 7
7.81250000000000000000e-01  2.18750000000000000000e-01  4.02407669214314533956e-01  4.71697776213142461188e-05 7
7.87499999999999977796e-01  2.18750000000000000000e-01  3.92701986694682203538e-01  4.70570138249581937373e-05 7
7.93749999999999955591e-01  2.18750000000000000000e-01  3.82844910083878553486e-01  4.69261085302985492262e-05 7
8.00000000000000044409e-01  2.18750000000000000000e-01  3.72840239472233103690e-01  4.67771125459148784387e-05 7
8.06250000000000022204e-01  2.18750000000000000000e-01  3.62691831851088331007e-01  4.66100829384918924347e-05 7
8.12500000000000000000e-01  2.18750000000000000000e-01  3.52403599624602326124e-01  4.64250842648894490594e-05 7
8.18749999999999977796e-01  2.18750000000000000000e-01  3.41979509102120715625e-01  4.62221878688162668425e-05 7
8.24999999999999955591e-01  2.18750000000000000000e-01  3.31423578969075927070e-01  4.60014718659529364686e-05 7
8.31250000000000044409e-01  2.18750000000000000000e-01  3.20739878737248740315e-01  4.57630215736082313072e-05 7
8.37500000000000022204e-01  2.18750000000000000000e-01  3.09932527176790928447e-01  4.55069285800191458691e-05 7
8.43750000000000000000e-01  2.18750000000000000000e-01  2.99005690727103257132e-01  4.52332919672060462801e-05 7
8.49999999999999977796e-01  2.18750000000000000000e-01  2.87963581891856224004e-01  4.49422170095692408154e-05 7
8.56249999999999955591e-01  2.18750000000000000000e-01  2.76810457614213190070e-01  4.46338159112991128552e-05 7
8.62500000000000044409e-01  2.18750000000000000000e-01  2.65550617635794350413e-01  4.43082076644341071869e-05 7
8.68750000000000022204e-01  2.18750000000000000000e-01  2.54188402839296445634e-01  4.39655177539299835132e-05 7
8.75000000000000000000e-01  2.18750000000000000000e-01  2.42728193574811484945e-01  4.36058782941894929053e-05 7
8.81249999999999977796e-01  2.18750000000000000000e-01  2.31174407971114548310e-01  4.32294279847644791204e-05 7
8.87499999999999955591e-01  2.18750000000000000000e-01  2.19531500232590798261e-01  4.28363118561148059626e-05 7
8.93750000000000044409e-01  2.18750000000000000000e-01  2.07803958921712300656e-01  4.24266815552132303679e-05 7
9.00000000000000022204e-01  2.18750000000000000000e-01  1.95996305229003769943e-01  4.20006948979312344505e-05 7
9.06250000000000000000e-01  2.18750000000000000000e-01  1.84113091229595182696e-01  4.15585162470977209637e-05 7
9.12499999999999977796e-01  2.18750000000000000000e-01  1.72158898128787402060e-01  4.11003159746237134442e-05 7
9.18749999999999955591e-01  2.18750000000000000000e-01  1.60138334495606576846e-01  4.06262706976467935505e-05 7
9.25000000000000044409e-01  2.18750000000000000000e-01  1.48056034486023030405e-01  4.01365633020678291842e-05 7
9.31250000000000022204e-01  2.18750000000000000000e-01  1.35916656056836837596e-01  3.96313824300997818995e-05 7
9.37500000000000000000e-01  2.18750000000000000000e-01  1.23724879169437002036e-01  3.91109229179731343606e-05 7
9.43749999999999977796e-01  2.18750000000000000000e-01  1.11485403985872047472e-01  3.85753854348219737957e-05 7
9.49999999999999955591e-01  2.18750000000000000000e-01  9.92029490568996225042e-02  3.80249763554940667376e-05 7
9.56250000000000044409e-01  2.18750000000000000000e-01  8.68822495025879382169e-02  3.74599079873000340157e-05 7
9.62500000000000022204e-01  2.18750000000000000000e-01  7.45280551872622432086e-02  3.68803980630300065613e-05 7
9.68750000000000000000e-01  2.18750000000000000000e-01  6.21451288879401458898e-02  3.62866700588521107207e-05 7
9.74999999999999977796e-01  2.18750000000000000000e-01  4.97382444584549693323e-02  3.56789528425105473275e-05 7
9.81249999999999955591e-01  2.18750000000000000000e-01  3.73121849889162249259e-02  3.50574807150075273832e-05 7
9.87500000000000044409e-01  2.18750000000000000000e-01  2.48717409617789653176e-02  3.44224932761483248811e-05 7
9.93750000000000022204e-01  2.18750000000000000000e-01  1.24380597445421202385e-02  1.74228958150206975075e-05 7
1.00000000000000000000e+00  2.18750000000000000000e-01  0.00000000000000000000e+00  7.76907704851585736246e-17 7
0.00000000000000000000e+00  2.25000000000000005551e-01  0.00000000000000000000e+00  0.00000000000000000000e+00 7
6.25000000000000034694e-03  2.25000000000000005551e-01  1.27668617727230079839e-02  1.57985226529166328246e-05 7
1.25000000000000006939e-02  2.25000000000000005551e-01  2.55283918883522677190e-02  3.11811658225726040516e-05 7
1.87499999999999993061e-02  2.25000000000000005551e-01  3.82639956037523418231e-02  3.04670688581754056656e-05 7
2.50000000000000013878e-02  2.25000000000000005551e-01  5.09848478204588395624e-02  2.97412262588933606899e-05 7
3.12500000000000000000e-02  2.25000000000000005551e-01  6.36860444077886750369e-02  2.90039178498097127701e-05 7
3.74999999999999986122e-02  2.25000000000000005551e-01  7.63626888126822944702e-02  2.82554278805413616737e-05 7
4.37499999999999972244e-02  2.25000000000000005551e-01  8.90098939474047029519e-02  2.74960449023059494422e-05 7
5.00000000000000027756e-02  2.25000000000000005551e-01  1.01622784073634411794e-01  2.67260616801240358242e-05 7
5.62500000000000013878e-02  2.25000000000000005551e-01  1.14196496682120118837e-01  2.59457750469566095219e-05 7
6.25000000000000000000e-02  2.25000000000000005551e-01  1.26726184367310618084e-01  2.51554858290703453605e-05 7
6.87500000000000055511e-02  2.25000000000000005551e-01  1.39207016696079238782e-01  2.43554986874283674325e-05 7
7.49999999999999972244e-02  2.25000000000000005551e-01  1.51634182069987882846e-01  2.35461220405297488867e-05 7
8.12500000000000027756e-02  2.25000000000000005551e-01  1.64002889580221911103e-01  2.27276679173327167405e-05 7
8.74999999999999944489e-02  2.25000000000000005551e-01  1.76308370854576706988e-01  2.19004518371701539792e-05 7
9.37500000000000000000e-02  2.25000000000000005551e-01  1.88545881895794326111e-01  2.10647927265106282846e-05 7
1.00000000000000005551e-01  2.25000000000000005551e-01  2.00710704910401160905e-01  2.02210127322466348687e-05 7
1.06249999999999997224e-01  2.25000000000000005551e-01  2.12798150127565977030e-01  1.93694371565245049283e-05 7
1.12500000000000002776e-01  2.25000000000000005551e-01  2.24803557607046733402e-01  1.85103942821618350223e-05 7
1.18749999999999994449e-01  2.25000000000000005551e-01  2.36722299035750982643e-01  1.76442153108080646007e-05 7
1.25000000000000000000e-01  2.25000000000000005551e-01  2.48549779511955365452e-01  1.67712341519743457496e-05 7
1.31250000000000005551e-01  2.25000000000000005551e-01  2.60281439316801310735e-01  1.58917873679387255947e-05 7
1.37500000000000011102e-01  2.25000000000000005551e-01  2.71912755672104045068e-01  1.50062139944173722483e-05 7
1.43749999999999988898e-01  2.25000000000000005551e-01  2.83439244483990215873e-01  1.41148554308467844010e-05 7
1.49999999999999994449e-01  2.25000000000000005551e-01  2.94856462071644231937e-01  1.32180553508165488097e-05 7
1.56250000000000000000e-01  2.25000000000000005551e-01  3.06160006880290769260e-01  1.23161594293708098746e-05 7
1.62500000000000005551e-01  2.25000000000000005551e-01  3.17345521178250211669e-01  1.14095153814774974421e-05 7
1.68750000000000011102e-01  2.25000000000000005551e-01  3.28408692736918361721e-01  1.04984728193091569892e-05 7
1.74999999999999988898e-01  2.25000000000000005551e-01  3.39345256492900981815e-01  9.58338280587778257313e-06 7
1.81249999999999994449e-01  2.25000000000000005551e-01  3.50150996192829078169e-01  8.66459827170151797304e-06 7
1.87500000000000000000e-01  2.25000000000000005551e-01  3.60821746018281652724e-01  7.74247335566524697015e-06 7
1.93750000000000005551e-01  2.25000000000000005551e-01  3.71353392192081188661e-01  6.81736356172857327351e-06 7
2.00000000000000011102e-01  2.25000000000000005551e-01  3.81741874564183181207e-01  5.88962557190875202195e-06 7
2.06249999999999988898e-01  2.25000000000000005551e-01  3.91983188176826258253e-01  4.95961699370495168182e-06 7
2.12499999999999994449e-01  2.25000000000000005551e-01  4.02073384808669331836e-01  4.02769637203315156171e-06 7
2.18750000000000000000e-01  2.25000000000000005551e-01  4.12008574496907364892e-01  3.09422305216910942249e-06 7
2.25000000000000005551e-01  2.25000000000000005551e-01  4.21784927036665979738e-01  2.15955678140034024182e-06 7
2.31250000000000011102e-01  2.25000000000000005551e-01  4.31398673458075199161e-01  1.22405802677194586181e-06 7
2.37499999999999988898e-01  2.25000000000000005551e-01  4.40846107478758297837e-01  2.88087315669649512984e-07 7
2.43749999999999994449e-01  2.25000000000000005551e-01  4.50123586933172004088e-01  6.47994405633678383083e-07 7
2.50000000000000000000e-01  2.25000000000000005551e-01  4.59227535176283729879e-01  1.58382635773168800597e-06 7
2.56249999999999977796e-01  2.25000000000000005551e-01  4.68154442462815512105e-01  2.51904768833188796862e-06 7
2.62500000000000011102e-01  2.25000000000000005551e-01  4.76900867300068476151e-01  3.45329786038961472627e-06 7
2.68749999999999988898e-01  2.25000000000000005551e-01  4.85463437774704298366e-01  4.38621677012474009416e-06 7
2.75000000000000022204e-01  2.25000000000000005551e-01  4.93838852852852505659e-01  5.31744471643502691904e-06 7
2.81250000000000000000e-01  2.25000000000000005551e-01  5.02023883652641167430e-01  6.24662261883290881315e-06 7
2.87499999999999977796e-01  2.25000000000000005551e-01  5.10015374688801426117e-01  7.17339234801439573630e-06 7
2.93750000000000011102e-01  2.25000000000000005551e-01  5.17810245089368459404e-01  8.09739666229880583614e-06 7
2.99999999999999988898e-01  2.25000000000000005551e-01  5.25405489783568602213e-01  9.01827919219666540585e-06 7
3.06250000000000022204e-01  2.25000000000000005551e-01  5.32798180659911024826e-01  9.93568499918495717793e-06 7
3.12500000000000000000e-01  2.25000000000000005551e-01  5.39985467695210163974e-01  1.08492605322974000615e-05 7
3.18749999999999977796e-01  2.25000000000000005551e-01  5.46964580053723947728e-01  1.17586533644464807935e-05 7
3.25000000000000011102e-01  2.25000000000000005551e-01  5.53732827154656659374e-01  1.26635130355268188396e-05 7
3.31249999999999988898e-01  2.25000000000000005551e-01  5.60287599709936134929e-01  1.35634906800463639343e-05 7
3.37500000000000022204e-01  2.25000000000000005551e-01  5.66626370729962136608e-01  1.44582393439840473093e-05 7
3.43750000000000000000e-01  2.25000000000000005551e-01  5.72746696497896112810e-01  1.53474140309750595179e-05 7
3.49999999999999977796e-01  2.25000000000000005551e-01  5.78646217511454841187e-01  1.62306721411820120693e-05 7
3.56250000000000011102e-01  2.25000000000000005551e-01  5.84322659393307186626e-01  1.71076728398000810216e-05 7
3.62499999999999988898e-01  2.25000000000000005551e-01  5.89773833766815802626e-01  1.79780782619820556079e-05 7
3.68750000000000022204e-01  2.25000000000000005551e-01  5.94997639100410147250e-01  1.88415529318586294494e-05 7
3.75000000000000000000e-01  2.25000000000000005551e-01  5.99992061518013986010e-01  1.96977636436335146186e-05 7
3.81249999999999977796e-01  2.25000000000000005551e-01  6.04755175574419379103e-01  2.05463806047800900956e-05 7
3.87500000000000011102e-01  2.25000000000000005551e-01  6.09285144998731764687e-01  2.13870764133039514832e-05 7
3.93749999999999988898e-01  2.25000000000000005551e-01  6.13580223401221203083e-01  2.22195272494563056398e-05 7
4.00000000000000022204e-01  2.25000000000000005551e-01  6.17638754947652968141e-01  2.30434119380396040810e-05 7
4.06250000000000000000e-01  2.25000000000000005551e-01  6.21459174996743746178e-01  2.38584129700347702396e-05 7
4.12499999999999977796e-01  2.25000000000000005551e-01  6.25040010703812654036e-01  2.46642161739751841765e-05 7
4.18750000000000011102e-01  2.25000000000000005551e-01  6.28379881588607802634e-01  2.54605108199745799880e-05 7
4.24999999999999988898e-01  2.25000000000000005551e-01  6.31477500067350039359e-01  2.62469898970607573574e-05 7
4.31250000000000022204e-01  2.25000000000000005551e-01  6.34331671948894393331e-01  2.70233504580108530035e-05 7
4.37500000000000000000e-01  2.25000000000000005551e-01  6.36941296896073594347e-01  2.77892927763589980827e-05 7
4.43749999999999977796e-01  2.25000000000000005551e-01  6.39305368848490318534e-01  2.85445218703994640919e-05 7
4.50000000000000011102e-01  2.25000000000000005551e-01  6.41422976411412548714e-01  2.92887465773716826334e-05 7
4.56249999999999988898e-01  2.25000000000000005551e-01  6.43293303206985633835e-01  3.00216798129193662703e-05 7
4.62500000000000022204e-01  2.25000000000000005551e-01  6.44915628188528766707e-01  3.07430391150997905925e-05 7
4.68750000000000000000e-01  2.25000000000000005551e-01  6.46289325918728896347e-01  3.14525465365811385254e-05 7
4.74999999999999977796e-01  2.25000000000000005551e-01  6.47413866811233917886e-01  3.21499282763815230624e-05 7
4.81250000000000011102e-01  2.25000000000000005551e-01  6.48288817333967037904e-01  3.28349156366591898859e-05 7
4.87499999999999988898e-01  2.25000000000000005551e-01  6.48913840176880918342e-01  3.35072445069029001274e-05 7
4.93750000000000022204e-01  2.25000000000000005551e-01  6.49288694381758180185e-01  3.41666557054365327417e-05 7
5.00000000000000000000e-01  2.25000000000000005551e-01  6.49413235435230773440e-01  3.48128949528847542183e-05 7
5.06249999999999977796e-01  2.25000000000000005551e-01  6.49287415324190542165e-01  3.54457132730745527738e-05 7
5.12499999999999955591e-01  2.25000000000000005551e-01  6.48911282554857637983e-01  3.60648665301832593855e-05 7
5.18750000000000044409e-01  2.25000000000000005551e-01  6.48284982133566223261e-01  3.66701160374738321934e-05 7
5.25000000000000022204e-01  2.25000000000000005551e-01  6.47408755510804900801e-01  3.72612287053986079854e-05 7
5.31250000000000000000e-01  2.25000000000000005551e-01  6.46282940489030233167e-01  3.78379762353553417142e-05 7
5.37499999999999977796e-01  2.25000000000000005551e-01  6.44907971090962650607e-01  3.84001366812158906328e-05 7
5.43749999999999955591e-01  2.25000000000000005551e-01  6.43284377393717465843e-01  3.89474930810873587461e-05 7
5.50000000000000044409e-01  2.25000000000000005551e-01  6.41412785323626999379e-01  3.94798343628099956959e-05 7
5.56250000000000022204e-01  2.25000000000000005551e-01  6.39293916414674812110e-01  3.99969556859058883447e-05 7
5.62500000000000000000e-01  2.25000000000000005551e-01  6.36928587531691570156e-01  4.04986571583831889143e-05 7
5.68749999999999977796e-01  2.25000000000000005551e-01  6.34317710553589431122e-01  4.09847457629730627104e-05 7
5.74999999999999955591e-01  2.25000000000000005551e-01  6.31462292023343252367e-01  4.14550339038477488884e-05 7
5.81250000000000044409e-01  2.25000000000000005551e-01  6.28363432759104667547e-01  4.19093403231096672812e-05 7
5.87500000000000022204e-01  2.25000000000000005551e-01  6.25022327430079349675e-01  4.23474899072795452071e-05 7
5.93750000000000000000e-01  2.25000000000000005551e-01  6.21440264095842187508e-01  4.27693138715934395577e-05 7
5.99999999999999977796e-01  2.25000000000000005551e-01  6.17618623710307623753e-01  4.31746492833839923264e-05 7
6.06249999999999955591e-01  2.25000000000000005551e-01  6.13558879588234296065e-01  4.35633402364743460566e-05 7
6.12500000000000044409e-01  2.25000000000000005551e-01  6.09262596838735293048e-01  4.39352364096645686686e-05 7
6.18750000000000022204e-01  2.25000000000000005551e-01  6.04731431760035409440e-01  4.42901949888607759931e-05 7
6.25000000000000000000e-01  2.25000000000000005551e-01  5.99967131203071102341e-01  4.46280785865171836235e-05 7
6.31249999999999977796e-01  2.25000000000000005551e-01  5.94971531895937433276e-01  4.49487574045726034910e-05 7
6.37499999999999955591e-01  2.25000000000000005551e-01  5.89746559737452269445e-01  4.52521076256262588799e-05 7