Titile = 'Poisson'  
VARIABLES = X, Y, U, Error, Rank 
zone N= 1771, E = 3200
DATAPACKING=POINT, ZONETYPE=FETRIANGLE
0.00000000000000000000e+00  7.50000000000000000000e-01  0.00000000000000000000e+00  0.00000000000000000000e+00 12
6.25000000000000034694e-03  7.50000000000000000000e-01  1.38670461381085029923e-02  1.60709405329622495584e-05 12
1.25000000000000006939e-02  7.50000000000000000000e-01  2.77291273314537699279e-02  3.17546199181291399771e-05 12
1.87499999999999993061e-02  7.50000000000000000000e-01  4.15954757103073405333e-02  3.24687653501867790062e-05 12
2.50000000000000013878e-02  7.50000000000000000000e-01  5.54457882414662317494e-02  3.31703934574115177902e-05 12
3.12500000000000000000e-02  7.50000000000000000000e-01  6.92747253657989420228e-02  3.38592337467968906850e-05 12
3.74999999999999986122e-02  7.50000000000000000000e-01  8.30769557648001893968e-02  3.45350206552852423414e-05 12
4.37499999999999972244e-02  7.50000000000000000000e-01  9.68471584159166093420e-02  3.51974936512455816029e-05 12
5.00000000000000027756e-02  7.50000000000000000000e-01  1.10580024643880725499e-01  3.58463973564315807607e-05 12
5.62500000000000013878e-02  7.50000000000000000000e-01  1.24270260167370763527e-01  3.64814815799197056378e-05 12
6.25000000000000000000e-02  7.50000000000000000000e-01  1.37912587139966041905e-01  3.71025015054593509944e-05 12
6.87500000000000055511e-02  7.50000000000000000000e-01  1.51501746184930952133e-01  3.77092177122340110884e-05 12
7.49999999999999972244e-02  7.50000000000000000000e-01  1.65032498422782558656e-01  3.83013962891032289093e-05 12
8.12500000000000027756e-02  7.50000000000000000000e-01  1.78499627490942364139e-01  3.88788089612512877125e-05 12
8.74999999999999944489e-02  7.50000000000000000000e-01  1.91897941554828838084e-01  3.94412330922688791901e-05 12
9.37500000000000000000e-02  7.50000000000000000000e-01  2.05222275309290408396e-01  3.99884518882676065488e-05 12
1.00000000000000005551e-01  7.50000000000000000000e-01  2.18467491970014748848e-01  4.05202543957705607625e-05 12
1.06249999999999997224e-01  7.50000000000000000000e-01  2.31628485253910471053e-01  4.10364355292180960078e-05 12
1.12500000000000002776e-01  7.50000000000000000000e-01  2.44700181347435236079e-01  4.15367963913781945706e-05 12
1.18749999999999994449e-01  7.50000000000000000000e-01  2.57677540863025300588e-01  4.20211439721707158412e-05 12
1.25000000000000000000e-01  7.50000000000000000000e-01  2.70555560781474024878e-01  4.24892916244812290927e-05 12
1.31250000000000005551e-01  7.50000000000000000000e-01  2.83329276380978045680e-01  4.29410588489442801574e-05 12
1.37500000000000011102e-01  7.50000000000000000000e-01  2.95993763151010058632e-01  4.33762714855956410531e-05 12
1.43749999999999988898e-01  7.50000000000000000000e-01  3.08544138690842184580e-01  4.37947617500378250099e-05 12
1.49999999999999994449e-01  7.50000000000000000000e-01  3.20975564591855944130e-01  4.41963682470958296733e-05 12
1.56250000000000000000e-01  7.50000000000000000000e-01  3.33283248302616574854e-01  4.45809362566995659449e-05 12
1.62500000000000005551e-01  7.50000000000000000000e-01  3.45462444976820937104e-01  4.49483174655984640822e-05 12
1.68750000000000011102e-01  7.50000000000000000000e-01  3.57508459302313064132e-01  4.52983702378673136479e-05 12
1.74999999999999988898e-01  7.50000000000000000000e-01  3.69416647311323453895e-01  4.56309595621151586897e-05 12
1.81249999999999994449e-01  7.50000000000000000000e-01  3.81182418170480763475e-01  4.59459574300713491368e-05 12
1.87500000000000000000e-01  7.50000000000000000000e-01  3.92801235951489302600e-01  4.62432420617608919144e-05 12
1.93750000000000005551e-01  7.50000000000000000000e-01  4.04268621378596593186e-01  4.65226991719913662848e-05 12
2.00000000000000011102e-01  7.50000000000000000000e-01  4.15580153556550702110e-01  4.67842209027624633677e-05 12
2.06249999999999988898e-01  7.50000000000000000000e-01  4.26731471674438367359e-01  4.70277063662760674845e-05 12
2.12499999999999994449e-01  7.50000000000000000000e-01  4.37718276686733354097e-01  4.72530618109701094909e-05 12
2.18750000000000000000e-01  7.50000000000000000000e-01  4.48536332971060991426e-01  4.74602002571988812463e-05 12
2.25000000000000005551e-01  7.50000000000000000000e-01  4.59181469960784793827e-01  4.76490418567787621384e-05 12
2.31250000000000011102e-01  7.50000000000000000000e-01  4.69649583752750510168e-01  4.78195140129478168944e-05 12
2.37499999999999988898e-01  7.50000000000000000000e-01  4.79936638690222627801e-01  4.79715506045419459724e-05 12
2.43749999999999994449e-01  7.50000000000000000000e-01  4.90038668917307629336e-01  4.81050934106885819119e-05 12
2.50000000000000000000e-01  7.50000000000000000000e-01  4.99951779909297677751e-01  4.82200907023222491432e-05 12
2.56249999999999977796e-01  7.50000000000000000000e-01  5.09672149973119048560e-01  4.83164982274519871908e-05 12
2.62500000000000011102e-01  7.50000000000000000000e-01  5.19196031720932538178e-01  4.83942789633040604258e-05 12
2.68749999999999988898e-01  7.50000000000000000000e-01  5.28519753515341195182e-01  4.84534026112815041643e-05 12
2.75000000000000022204e-01  7.50000000000000000000e-01  5.37639720883846372601e-01  4.84938466401851897558e-05 12
2.81250000000000000000e-01  7.50000000000000000000e-01  5.46552417905461718206e-01  4.85155954170757297561e-05 12
2.87499999999999977796e-01  7.50000000000000000000e-01  5.55254408566046575579e-01  4.85186403353932149685e-05 12
2.93750000000000011102e-01  7.50000000000000000000e-01  5.63742338082107385944e-01  4.85029806652770290043e-05 12
2.99999999999999988898e-01  7.50000000000000000000e-01  5.72012934195917699398e-01  4.84686217666618901490e-05 12
3.06250000000000022204e-01  7.50000000000000000000e-01  5.80063008434439808525e-01  4.84155776834249707008e-05 12
3.12500000000000000000e-01  7.50000000000000000000e-01  5.87889457341417842606e-01  4.83438682615799919517e-05 12
3.18749999999999977796e-01  7.50000000000000000000e-01  5.95489263671522772725e-01  4.82535214387791455692e-05 12
3.25000000000000011102e-01  7.50000000000000000000e-01  6.02859497554804724118e-01  4.81445719863193843935e-05 12
3.31249999999999988898e-01  7.50000000000000000000e-01  6.09997317625985746581e-01  4.80170617230823992827e-05 12
3.37500000000000022204e-01  7.50000000000000000000e-01  6.16899972119031025919e-01  4.78710403297721853733e-05 12
3.43750000000000000000e-01  7.50000000000000000000e-01  6.23564799930046320675e-01  4.77065632892292867950e-05 12
3.49999999999999977796e-01  7.50000000000000000000e-01  6.29989231640364577558e-01  4.75236946858581532638e-05 12
3.56250000000000011102e-01  7.50000000000000000000e-01  6.36170790509276828928e-01  4.73225050090508858602e-05 12
3.62499999999999988898e-01  7.50000000000000000000e-01  6.42107093429036157595e-01  4.71030709524589141779e-05 12
3.68750000000000022204e-01  7.50000000000000000000e-01  6.47795851840429648405e-01  4.68654785470423718152e-05 12
3.75000000000000000000e-01  7.50000000000000000000e-01  6.53234872620045425862e-01  4.66098181428620250699e-05 12
3.81249999999999977796e-01  7.50000000000000000000e-01  6.58422058921399377951e-01  4.63361887390600912795e-05 12
3.87500000000000011102e-01  7.50000000000000000000e-01  6.63355410985027704740e-01  4.60446962270433246545e-05 12
3.93749999999999988898e-01  7.50000000000000000000e-01  6.68033026910705540757e-01  4.57354520762009997270e-05 12
4.00000000000000022204e-01  7.50000000000000000000e-01  6.72453103387563921878e-01  4.54085763934575226131e-05 12
4.06250000000000000000e-01  7.50000000000000000000e-01  6.76613936392210568727e-01  4.50641949658603380158e-05 12
4.12499999999999977796e-01  7.50000000000000000000e-01  6.80513921844996594324e-01  4.47024398795292654540e-05 12
4.18750000000000011102e-01  7.50000000000000000000e-01  6.84151556225744417183e-01  4.43234521437796402665e-05 12
4.24999999999999988898e-01  7.50000000000000000000e-01  6.87525437159539731802e-01  4.39273754808677807659e-05 12
4.31250000000000022204e-01  7.50000000000000000000e-01  6.90634263948202153927e-01  4.35143654413661096214e-05 12
4.37500000000000000000e-01  7.50000000000000000000e-01  6.93476838082258684182e-01  4.30845788150779895886e-05 12
4.43749999999999977796e-01  7.50000000000000000000e-01  6.96052063694171829766e-01  4.26381823911414770123e-05 12
4.50000000000000011102e-01  7.50000000000000000000e-01  6.98358947985184275176e-01  4.21753485261300298248e-05 12
4.56249999999999988898e-01  7.50000000000000000000e-01  7.00396601608506697012e-01  4.16962546326837824040e-05 12
4.62500000000000022204e-01  7.50000000000000000000e-01  7.02164239008462698344e-01  4.12010868268142260717e-05 12
4.68750000000000000000e-01  7.50000000000000000000e-01  7.03661178728589242759e-01  4.06900346019423153621e-05 12
4.74999999999999977796e-01  7.50000000000000000000e-01  7.04886843669275564572e-01  4.01632958317854615871e-05 12
4.81250000000000011102e-01  7.50000000000000000000e-01  7.05840761313530129506e-01  3.96210734091573257842e-05 12
4.87499999999999988898e-01  7.50000000000000000000e-01  7.06522563908321576953e-01  3.90635759920376912646e-05 12
4.93750000000000022204e-01  7.50000000000000000000e-01  7.06931988604817984623e-01  3.84910194594079158037e-05 12
5.00000000000000000000e-01  7.50000000000000000000e-01  7.07068877563383546558e-01  3.79036231640261789266e-05 12
5.06249999999999977796e-01  7.50000000000000000000e-01  7.06933178009803486752e-01  3.73016144739057864399e-05 12
5.12499999999999955591e-01  7.50000000000000000000e-01  7.06524942258588417587e-01  3.66852257251970570451e-05 12
5.18750000000000044409e-01  7.50000000000000000000e-01  7.05844327693293971393e-01  3.60546936453154387436e-05 12
5.25000000000000022204e-01  7.50000000000000000000e-01  7.04891596702825973253e-01  3.54102622813767808907e-05 12
5.31250000000000000000e-01  7.50000000000000000000e-01  7.03667116583936769203e-01  3.47521792545268937147e-05 12
5.37499999999999977796e-01  7.50000000000000000000e-01  7.02171359396807415187e-01  3.40806984820973823958e-05 12
5.43749999999999955591e-01  7.50000000000000000000e-01  7.00404901783746591803e-01  3.33960793927889909583e-05 12
5.50000000000000044409e-01  7.50000000000000000000e-01  6.98368424748704863525e-01  3.26985850054306581569e-05 12
5.56250000000000022204e-01  7.50000000000000000000e-01  6.96062713391709553257e-01  3.19884848534179866419e-05 12
5.62500000000000000000e-01  7.50000000000000000000e-01  6.93488656608408415849e-01  3.12660526653463222146e-05 12
5.68749999999999977796e-01  7.50000000000000000000e-01  6.90647246746760812286e-01  3.05315668827077502101e-05 12
5.74999999999999955591e-01  7.50000000000000000000e-01  6.87539579224695995840e-01  2.97853103246037420604e-05 12
5.81250000000000044409e-01  7.50000000000000000000e-01  6.84166852107100598168e-01  2.90275707875986554996e-05 12
5.87500000000000022204e-01  7.50000000000000000000e-01  6.80530365643503887263e-01  2.82586413722363261058e-05 12
5.93750000000000000000e-01  7.50000000000000000000e-01  6.76631521770098665058e-01  2.74788170777640061715e-05 12
5.99999999999999977796e-01  7.50000000000000000000e-01  6.72471823564748216739e-01  2.66883992091626609522e-05 12
6.06249999999999955591e-01  7.50000000000000000000e-01  6.68052874670347573982e-01  2.58876924342787972932e-05 12
6.12500000000000044409e-01  7.50000000000000000000e-01  6.63376378675665234752e-01  2.50770055894022902976e-05 12
6.18750000000000022204e-01  7.50000000000000000000e-01  6.58444138458865513286e-01  2.42566512729247563129e-05 12
6.25000000000000000000e-01  7.50000000000000000000e-01  6.53258055492902833805e-01  2.34269452854540816134e-05 12
6.31249999999999977796e-01  7.50000000000000000000e-01  6.47820129111224995988e-01  2.25882077516947887830e-05 12
6.37499999999999955591e-01  7.50000000000000000000e-01  6.42132455737629559422e-01  2.17407623591681087305e-05 12
6.43750000000000044409e-01  7.50000000000000000000e-01  6.36197228079231291709e-01  2.08849350544770828719e-05 12
6.50000000000000022204e-01  7.50000000000000000000e-01  6.30016734278548429238e-01  2.00210565021174957678e-05 12
6.56250000000000000000e-01  7.50000000000000000000e-01  6.23593357034253892301e-01  1.91494590817686827222e-05 12
6.62499999999999977796e-01  7.50000000000000000000e-01  6.16929572679514204303e-01  1.82704798467048235011e-05 12
6.68749999999999955591e-01  7.50000000000000000000e-01  6.10027950231370130751e-01  1.73844563389202733106e-05 12
6.75000000000000044409e-01  7.50000000000000000000e-01  6.02891150395604369372e-01  1.64917311866741300719e-05 12
6.81250000000000022204e-01  7.50000000000000000000e-01  5.95521924545160064035e-01  1.55926478015988578818e-05 12
6.87500000000000000000e-01  7.50000000000000000000e-01  5.87923113655879236994e-01  1.46875538002966266049e-05 12
6.93749999999999977796e-01  7.50000000000000000000e-01  5.80097647215694012246e-01  1.37767964292212496957e-05 12
6.99999999999999955591e-01  7.50000000000000000000e-01  5.72048542088961831098e-01  1.28607287225301902822e-05 12
7.06250000000000044409e-01  7.50000000000000000000e-01  5.63778901359947570704e-01  1.19397028250922687675e-05 12
7.12500000000000022204e-01  7.50000000000000000000e-01  5.55291913132467174208e-01  1.10140739147945865284e-05 12
7.18750000000000000000e-01  7.50000000000000000000e-01  5.46590849302447279179e-01  1.00841984316257793353e-05 12
7.24999999999999977796e-01  7.50000000000000000000e-01  5.37679064294457442763e-01  9.15043602911502773622e-06 12
7.31249999999999955591e-01  7.50000000000000000000e-01  5.28559993773092040570e-01  8.21314486065816140581e-06 12
7.37500000000000044409e-01  7.50000000000000000000e-01  5.19237153311139287837e-01  7.27268875644337953190e-06 12
7.43750000000000022204e-01  7.50000000000000000000e-01  5.09714137043601578370e-01  6.32942774514422268339e-06 12
7.50000000000000000000e-01  7.50000000000000000000e-01  4.99994616272212644148e-01  5.38372778746687430385e-06 12
7.56249999999999977796e-01  7.50000000000000000000e-01  4.90082338059758815252e-01  4.43595095950266582463e-06 12
7.62499999999999955591e-01  7.50000000000000000000e-01  4.79981123775985230040e-01  3.48646484216175167603e-06 12
7.68750000000000044409e-01  7.50000000000000000000e-01  4.69694867632451718009e-01  2.53563431162895369653e-06 12
7.75000000000000022204e-01  7.50000000000000000000e-01  4.59227535176227996683e-01  1.58382641363141729585e-06 12
7.81250000000000000000e-01  7.50000000000000000000e-01  4.48583161763848992099e-01  6.31407469198208559646e-07 12
7.87499999999999977796e-01  7.50000000000000000000e-01  4.37765851002435313344e-01  3.21253890822603693778e-07 12
7.93749999999999955591e-01  7.50000000000000000000e-01  4.26779773173398213615e-01  1.27379259351467766237e-06 12
8.00000000000000044409e-01  7.50000000000000000000e-01  4.15629163616564489825e-01  2.22583911096974063071e-06 12
8.06250000000000022204e-01  7.50000000000000000000e-01  4.04318321106395428544e-01  3.17702862684399178761e-06 12
8.12500000000000000000e-01  7.50000000000000000000e-01  3.92851606186140289712e-01  4.12699258922621936563e-06 12
8.18749999999999977796e-01  7.50000000000000000000e-01  3.81233439493325498848e-01  5.07536541449749023514e-06 12
8.24999999999999955591e-01  7.50000000000000000000e-01  3.69468300053122644666e-01  6.02178223702010129159e-06 12
8.31250000000000044409e-01  7.50000000000000000000e-01  3.57560723549652459408e-01  6.96587710152796191210e-06 12
8.37500000000000022204e-01  7.50000000000000000000e-01  3.45515300580974793476e-01  7.90728668831341963141e-06 12
8.43750000000000000000e-01  7.50000000000000000000e-01  3.33336674886395067929e-01  8.84564752162697587323e-06 12
8.49999999999999977796e-01  7.50000000000000000000e-01  3.21029541558648046085e-01  9.78059854489510271947e-06 12
8.56249999999999955591e-01  7.50000000000000000000e-01  3.08598645231570434255e-01  1.07117789778787830812e-05 12
8.62500000000000044409e-01  7.50000000000000000000e-01  2.96048778251979505249e-01  1.16388294840175099409e-05 12
8.68750000000000022204e-01  7.50000000000000000000e-01  2.83384778832982298091e-01  1.25613931551415980437e-05 12
8.75000000000000000000e-01  7.50000000000000000000e-01  2.70611529187543997654e-01  1.34791144453805245007e-05 12
8.81249999999999977796e-01  7.50000000000000000000e-01  2.57733953645867208682e-01  1.43916388697373776040e-05 12
8.87499999999999955591e-01  7.50000000000000000000e-01  2.44757016759370144010e-01  1.52986155433076920218e-05 12
8.93750000000000044409e-01  7.50000000000000000000e-01  2.31685721383118492511e-01  1.61996936789143841651e-05 12
9.00000000000000022204e-01  7.50000000000000000000e-01  2.18525106751451564380e-01  1.70945270409617045004e-05 12
9.06250000000000000000e-01  7.50000000000000000000e-01  2.05280246530822968465e-01  1.79827696442369511232e-05 12
9.12499999999999977796e-01  7.50000000000000000000e-01  1.91956246868001639827e-01  1.88640800803108188433e-05 12
9.18749999999999955591e-01  7.50000000000000000000e-01  1.78558244417640732404e-01  1.97381177369504445807e-05 12
9.25000000000000044409e-01  7.50000000000000000000e-01  1.65091404365125038467e-01  2.06045460532655599906e-05 12
9.31250000000000022204e-01  7.50000000000000000000e-01  1.51560918433568947439e-01  2.14630309257890505847e-05 12
9.37500000000000000000e-01  7.50000000000000000000e-01  1.37972002882954747349e-01  2.23132414829962932856e-05 12
9.43749999999999977796e-01  7.50000000000000000000e-01  1.24329896498542535888e-01  2.31548495916999996780e-05 12
9.49999999999999955591e-01  7.50000000000000000000e-01  1.10639858572612631571e-01  2.39875313753912244863e-05 12
9.56250000000000044409e-01  7.50000000000000000000e-01  9.69071668748045095265e-02  2.48109652366407251733e-05 12
9.62500000000000022204e-01  7.50000000000000000000e-01  8.31371156197097116447e-02  2.56248342543063944987e-05 12
9.68750000000000000000e-01  7.50000000000000000000e-01  6.93350134237773751966e-02  2.64288242314836274716e-05 12
9.74999999999999977796e-01  7.50000000000000000000e-01  5.55061812603771034813e-02  2.72226254533700084970e-05 12
9.81249999999999955591e-01  7.50000000000000000000e-01  4.16559504074812264607e-02  2.80059318233730203396e-05 12
9.87500000000000044409e-01  7.50000000000000000000e-01  2.77896603927418016367e-02  2.87784413699754271221e-05 12
9.93750000000000022204e-01  7.50000000000000000000e-01  1.38976996430263260995e-02  1.45825643846977937024e-05 12
1.00000000000000000000e+00  7.50000000000000000000e-01  0.00000000000000000000e+00  8.65956056235493409077e-17 12
0.00000000000000000000e+00  7.56249999999999977796e-01  0.00000000000000000000e+00  0.00000000000000000000e+00 12
6.25000000000000034694e-03  7.56249999999999977796e-01  1.35915099722784087077e-02  1.63541522905947395161e-05 12
1.25000000000000006939e-02  7.56249999999999977796e-01  2.71781686325004608051e-02  3.23135259799912921697e-05 12
1.87499999999999993061e-02  7.56249999999999977796e-01  4.07695976670044910040e-02  3.30123665401027555077e-05 12
2.50000000000000013878e-02  7.56249999999999977796e-01  5.43453092455239497593e-02  3.36984802036671693415e-05 12
3.12500000000000000000e-02  7.56249999999999977796e-01  6.79000696728174896188e-02  3.43716024631401939615e-05 12
3.74999999999999986122e-02  7.56249999999999977796e-01  8.14286533307145982130e-02  3.50314738162132988109e-05 12
4.37499999999999972244e-02  7.56249999999999977796e-01  9.49258446926919269293e-02  3.56778398647727978954e-05 12
5.00000000000000027756e-02  7.56249999999999977796e-01  1.08386440334538008967e-01  3.63104514330830907554e-05 12
5.62500000000000013878e-02  7.56249999999999977796e-01  1.21805250940408366089e-01  3.69290646276831946437e-05 12
6.25000000000000000000e-02  7.56249999999999977796e-01  1.35177103303373097321e-01  3.75334409640215582726e-05 12
6.87500000000000055511e-02  7.56249999999999977796e-01  1.48496842319798094678e-01  3.81233474469055977352e-05 12
7.49999999999999972244e-02  7.56249999999999977796e-01  1.61759332976745801025e-01  3.86985566499797872808e-05 12
8.12500000000000027756e-02  7.56249999999999977796e-01  1.74959462331593124107e-01  3.92588468309806870593e-05 12
8.74999999999999944489e-02  7.56249999999999977796e-01  1.88092141483224339904e-01  3.98040019608802975171e-05 12
9.37500000000000000000e-02  7.56249999999999977796e-01  2.01152307533793123229e-01  4.03338119133178629738e-05 12
1.00000000000000005551e-01  7.56249999999999977796e-01  2.14134925540729464943e-01  4.08480723824156122248e-05 12
1.06249999999999997224e-01  7.56249999999999977796e-01  2.27034990457551072440e-01  4.13465852161509772600e-05 12
1.12500000000000002776e-01  7.56249999999999977796e-01  2.39847529063865472221e-01  4.18291580314422706266e-05 12
1.18749999999999994449e-01  7.56249999999999977796e-01  2.52567601881903580630e-01  4.22956050257217164301e-05 12
1.25000000000000000000e-01  7.56249999999999977796e-01  2.65190305081616228833e-01  4.27457462150448996852e-05 12
1.31250000000000005551e-01  7.56249999999999977796e-01  2.77710772370617475779e-01  4.31794080796854551352e-05 12
1.37500000000000011102e-01  7.56249999999999977796e-01  2.90124176870373506887e-01  4.35964234907215697490e-05 12
1.43749999999999988898e-01  7.56249999999999977796e-01  3.02425732977187222694e-01  4.39966316430062676091e-05 12
1.49999999999999994449e-01  7.56249999999999977796e-01  3.14610698206972516644e-01  4.43798782850945983114e-05 12
1.56250000000000000000e-01  7.56249999999999977796e-01  3.26674375023776442095e-01  4.47460155734713538322e-05 12
1.62500000000000005551e-01  7.56249999999999977796e-01  3.38612112650437113714e-01  4.50949024615732163568e-05 12
1.68750000000000011102e-01  7.56249999999999977796e-01  3.50419308861858291859e-01  4.54264044428276392296e-05 12
1.74999999999999988898e-01  7.56249999999999977796e-01  3.62091411759214498733e-01  4.57403936426903356960e-05 12
1.81249999999999994449e-01  7.56249999999999977796e-01  3.73623921524712798714e-01  4.60367489496515958081e-05 12
1.87500000000000000000e-01  7.56249999999999977796e-01  3.85012392155986815645e-01  4.63153564335683221032e-05 12
1.93750000000000005551e-01  7.56249999999999977796e-01  3.96252433181270402596e-01  4.65761082342752708030e-05 12
2.00000000000000011102e-01  7.56249999999999977796e-01  4.07339711350409583446e-01  4.68189042017730372436e-05 12
2.06249999999999988898e-01  7.56249999999999977796e-01  4.18269952306717818225e-01  4.70436506299076739879e-05 12
2.12499999999999994449e-01  7.56249999999999977796e-01  4.29038942234486464500e-01  4.72502606279623371677e-05 12
2.18750000000000000000e-01  7.56249999999999977796e-01  4.39642529482622557158e-01  4.74386550226024716892e-05 12
2.25000000000000005551e-01  7.56249999999999977796e-01  4.50076626166845794597e-01  4.76087607318431693670e-05 12
2.31250000000000011102e-01  7.56249999999999977796e-01  4.60337209744135000822e-01  4.77605123039848145083e-05 12
2.37499999999999988898e-01  7.56249999999999977796e-01  4.70420324563831759868e-01  4.78938516060845032030e-05 12
2.43749999999999994449e-01  7.56249999999999977796e-01  4.80322083393935006512e-01  4.80087265306572419377e-05 12
2.50000000000000000000e-01  7.56249999999999977796e-01  4.90038668917299635730e-01  4.81050934185711653868e-05 12
2.56249999999999977796e-01  7.56249999999999977796e-01  4.99566335205534617359e-01  4.81829148267776119496e-05 12
2.62500000000000011102e-01  7.56249999999999977796e-01  5.08901409161968243389e-01  4.82421607038707733750e-05 12
2.68749999999999988898e-01  7.56249999999999977796e-01  5.18040291937626684593e-01  4.82828084715780647684e-05 12
2.75000000000000022204e-01  7.56249999999999977796e-01  5.26979460319460413231e-01  4.83048422326159965223e-05 12
2.81250000000000000000e-01  7.56249999999999977796e-01  5.35715468087994528545e-01  4.83082533910828004764e-05 12
2.87499999999999977796e-01  7.56249999999999977796e-01  5.44244947345476681733e-01  4.82930410922177699717e-05 12
2.93750000000000011102e-01  7.56249999999999977796e-01  5.52564609815881957466e-01  4.82592106056944913917e-05 12
2.99999999999999988898e-01  7.56249999999999977796e-01  5.60671248110348408034e-01  4.82067755814830078975e-05 12
3.06250000000000022204e-01  7.56249999999999977796e-01  5.68561736966032738039e-01  4.81357556979533640629e-05 12
3.12500000000000000000e-01  7.56249999999999977796e-01  5.76233034448933367777e-01  4.80461786800390200369e-05 12
3.18749999999999977796e-01  7.56249999999999977796e-01  5.83682183128103049263e-01  4.79380787993255452761e-05 12
3.25000000000000011102e-01  7.56249999999999977796e-01  5.90906311214497992346e-01  4.78114981572463904058e-05 12
3.31249999999999988898e-01  7.56249999999999977796e-01  5.97902633669749050682e-01  4.76664850271868445475e-05 12
3.37500000000000022204e-01  7.56249999999999977796e-01  6.04668453278173201326e-01  4.75030955101596319423e-05 12
3.43750000000000000000e-01  7.56249999999999977796e-01  6.11201161687089600250e-01  4.73213930242133429260e-05 12
3.49999999999999977796e-01  7.56249999999999977796e-01  6.17498240413797971904e-01  4.71214468721337098600e-05 12
3.56250000000000011102e-01  7.56249999999999977796e-01  6.23557261814317698168e-01  4.69033343980518324656e-05 12
3.62499999999999988898e-01  7.56249999999999977796e-01  6.29375890019840067424e-01  4.66671404084628704823e-05 12
3.68750000000000022204e-01  7.56249999999999977796e-01  6.34951881839961762566e-01  4.64129544280877937013e-05 12
3.75000000000000000000e-01  7.56249999999999977796e-01  6.40283087621905555586e-01  4.61408762372217395864e-05 12
3.81249999999999977796e-01  7.56249999999999977796e-01  6.45367452085465531653e-01  4.58510096199571393072e-05 12
3.87500000000000011102e-01  7.56249999999999977796e-01  6.50203015111444626584e-01  4.55434662366416276313e-05 12
3.93749999999999988898e-01  7.56249999999999977796e-01  6.54787912497653445953e-01  4.52183652444038131080e-05 12
4.00000000000000022204e-01  7.56249999999999977796e-01  6.59120376679119046592e-01  4.48758317294073449943e-05 12
4.06250000000000000000e-01  7.56249999999999977796e-01  6.63198737408521199477e-01  4.45159976507625287923e-05 12
4.12499999999999977796e-01  7.56249999999999977796e-01  6.67021422399953767268e-01  4.41390019408904876741e-05 12
4.18750000000000011102e-01  7.56249999999999977796e-01  6.70586957936144534287e-01  4.37449893789798593957e-05 12
4.24999999999999988898e-01  7.56249999999999977796e-01  6.73893969434018247355e-01  4.33341131172992888310e-05 12
4.31250000000000022204e-01  7.56249999999999977796e-01  6.76941181979677786273e-01  4.29065295692865333876e-05 12
4.37500000000000000000e-01  7.56249999999999977796e-01  6.79727420812424099061e-01  4.24624058328326725587e-05 12
4.43749999999999977796e-01  7.56249999999999977796e-01  6.82251611785585132530e-01  4.20019116896819255658e-05 12
4.50000000000000011102e-01  7.56249999999999977796e-01  6.84512781775799550310e-01  4.15252243601837989218e-05 12
4.56249999999999988898e-01  7.56249999999999977796e-01  6.86510059057290344953e-01  4.10325293186408757151e-05 12
4.62500000000000022204e-01  7.56249999999999977796e-01  6.88242673643310598486e-01  4.05240148435570546326e-05 12
4.68750000000000000000e-01  7.56249999999999977796e-01  6.89709957577494758851e-01  3.99998774376353338766e-05 12
4.74999999999999977796e-01  7.56249999999999977796e-01  6.90911345193199966097e-01  3.94603199211918109768e-05 12
4.81250000000000011102e-01  7.56249999999999977796e-01  6.91846373333664832472e-01  3.89055492697742977271e-05 12
4.87499999999999988898e-01  7.56249999999999977796e-01  6.92514681527343745060e-01  3.83357797564265467827e-05 12
4.93750000000000022204e-01  7.56249999999999977796e-01  6.92916012128585445673e-01  3.77512311591221561002e-05 12
5.00000000000000000000e-01  7.56249999999999977796e-01  6.93050210416694234539e-01  3.71521289416198996491e-05 12
5.06249999999999977796e-01  7.56249999999999977796e-01  6.92917224655955732437e-01  3.65387037888353916060e-05 12
5.12499999999999955591e-01  7.56249999999999977796e-01  6.92517106115293046287e-01  3.59111918071253199969e-05 12
5.18750000000000044409e-01  7.56249999999999977796e-01  6.91850009046676150959e-01  3.52698362584558111621e-05 12
5.25000000000000022204e-01  7.56249999999999977796e-01  6.90916190630718185517e-01  3.46148824029723911622e-05 12
5.31250000000000000000e-01  7.56249999999999977796e-01  6.89716010870044637926e-01  3.39465848878672815658e-05 12
5.37499999999999977796e-01  7.56249999999999977796e-01  6.88249932458121160828e-01  3.32652000329947128421e-05 12
5.43749999999999955591e-01  7.56249999999999977796e-01  6.86518520596314463234e-01  3.25709902945225948656e-05 12
5.50000000000000044409e-01  7.56249999999999977796e-01  6.84522442775780559643e-01  3.18642243790634438483e-05 12
5.56250000000000022204e-01  7.56249999999999977796e-01  6.82262468523407217269e-01  3.11451738675971867565e-05 12
5.62500000000000000000e-01  7.56249999999999977796e-01  6.79739469101701909715e-01  3.04141165550220193836e-05 12
5.68749999999999977796e-01  7.56249999999999977796e-01  6.76954417175491873770e-01  2.96713337551990363750e-05 12
5.74999999999999955591e-01  7.56249999999999977796e-01  6.73908386434650896746e-01  2.89171124847609206654e-05 12
5.81250000000000044409e-01  7.56249999999999977796e-01  6.70602551182846728928e-01  2.81517426767852185776e-05 12
5.87500000000000022204e-01  7.56249999999999977796e-01  6.67038185881910328234e-01  2.73755199843295216056e-05 12
5.93750000000000000000e-01  7.56249999999999977796e-01  6.63216664662424348897e-01  2.65887437476131083258e-05 12
5.99999999999999977796e-01  7.56249999999999977796e-01  6.59139460794085585427e-01  2.57917167629795329731e-05 12
6.06249999999999955591e-01  7.56249999999999977796e-01  6.54808146116352851607e-01  2.49847465451091821365e-05 12
6.12500000000000044409e-01  7.56249999999999977796e-01  6.50224390433224108676e-01  2.41681444570485126633e-05 12
6.18750000000000022204e-01  7.56249999999999977796e-01  6.45389960869844125924e-01  2.33422252413628683598e-05 12
6.25000000000000000000e-01  7.56249999999999977796e-01  6.40306721191645333846e-01  2.25073064974434799979e-05 12