Titile = 'Poisson'  
VARIABLES = X, Y, U, Error, Rank 
zone N= 1771, E = 3200
DATAPACKING=POINT, ZONETYPE=FETRIANGLE
0.00000000000000000000e+00  1.87500000000000000000e-01  0.00000000000000000000e+00  0.00000000000000000000e+00 3
6.25000000000000034694e-03  1.87500000000000000000e-01  1.09078723100590017914e-02  2.27853274702843888733e-08 3
1.25000000000000006939e-02  1.87500000000000000000e-01  2.18115128555750326100e-02  7.21339973655532595842e-08 3
1.87499999999999993061e-02  1.87500000000000000000e-01  3.27067189538141553373e-02  1.47148728181500931811e-07 3
2.50000000000000013878e-02  1.87500000000000000000e-01  4.35892911607162827914e-02  2.46935309804185987304e-07 3
3.12500000000000000000e-02  1.87500000000000000000e-01  5.44550348887154062050e-02  3.70604093621884622678e-07 3
3.74999999999999986122e-02  1.87500000000000000000e-01  6.52997620227420971784e-02  5.17271426359044994570e-07 3
4.37499999999999972244e-02  1.87500000000000000000e-01  7.61192925338012166270e-02  6.86061011112570895421e-07 3
5.00000000000000027756e-02  1.87500000000000000000e-01  8.69094560895187218108e-02  8.76105179153929825020e-07 3
5.62500000000000013878e-02  1.87500000000000000000e-01  9.76660936610436319905e-02  1.08654606491287442083e-06 3
6.25000000000000000000e-02  1.87500000000000000000e-01  1.08385059125701219140e-01  1.31653666837761029740e-06 3
6.87500000000000055511e-02  1.87500000000000000000e-01  1.19062220864777787432e-01  1.56524180605632778907e-06 3
7.49999999999999972244e-02  1.87500000000000000000e-01  1.29693463355828486616e-01  1.83183894270078084787e-06 3
8.12500000000000027756e-02  1.87500000000000000000e-01  1.40274688758895815788e-01  2.11551890230698980133e-06 3
8.74999999999999944489e-02  1.87500000000000000000e-01  1.50801818496016093452e-01  2.41548646887079776491e-06 3
9.37500000000000000000e-02  1.87500000000000000000e-01  1.61270794823418744945e-01  2.73096086289559281113e-06 3
1.00000000000000005551e-01  1.87500000000000000000e-01  1.71677582395783484559e-01  3.06117612314249498695e-06 3
1.06249999999999997224e-01  1.87500000000000000000e-01  1.82018169821965919430e-01  3.40538137824641928830e-06 3
1.12500000000000002776e-01  1.87500000000000000000e-01  1.92288571211575137765e-01  3.76284102657220564936e-06 3
1.18749999999999994449e-01  1.87500000000000000000e-01  2.02484827711794518335e-01  4.13283483552406849526e-06 3
1.25000000000000000000e-01  1.87500000000000000000e-01  2.12603009033854095655e-01  4.51465796000305452651e-06 3
1.31250000000000005551e-01  1.87500000000000000000e-01  2.22639214968548770912e-01  4.90762089691565428495e-06 3
1.37500000000000011102e-01  1.87500000000000000000e-01  2.32589576890219529304e-01  5.31104937490090023289e-06 3
1.43749999999999988898e-01  1.87500000000000000000e-01  2.42450259248598087858e-01  5.72428419817749833953e-06 3
1.49999999999999994449e-01  1.87500000000000000000e-01  2.52217461047937407947e-01  6.14668104820248473175e-06 3
1.56250000000000000000e-01  1.87500000000000000000e-01  2.61887417312859971386e-01  6.57761023964420488142e-06 3
1.62500000000000005551e-01  1.87500000000000000000e-01  2.71456400540327991155e-01  7.01645646256077171188e-06 3
1.68750000000000011102e-01  1.87500000000000000000e-01  2.80920722137201483992e-01  7.46261848538765093508e-06 3
1.74999999999999988898e-01  1.87500000000000000000e-01  2.90276733842796674789e-01  7.91550885070879672867e-06 3
1.81249999999999994449e-01  1.87500000000000000000e-01  2.99520829135907828977e-01  8.37455355406913071192e-06 3
1.87500000000000000000e-01  1.87500000000000000000e-01  3.08649444625742841453e-01  8.83919171223990218778e-06 3
1.93750000000000005551e-01  1.87500000000000000000e-01  3.17659061426226518865e-01  9.30887523103995917495e-06 3
2.00000000000000011102e-01  1.87500000000000000000e-01  3.26546206513146974881e-01  9.78306846799448237562e-06 3
2.06249999999999988898e-01  1.87500000000000000000e-01  3.35307454063616672268e-01  1.02612478944941187819e-05 3
2.12499999999999994449e-01  1.87500000000000000000e-01  3.43939426777325751861e-01  1.07429017645044311280e-05 3
2.18750000000000000000e-01  1.87500000000000000000e-01  3.52438797179083496136e-01  1.12275297837194365513e-05 3
2.25000000000000005551e-01  1.87500000000000000000e-01  3.60802288902132672899e-01  1.17146427933145780287e-05 3
2.31250000000000011102e-01  1.87500000000000000000e-01  3.69026677951757420271e-01  1.22037624522008947281e-05 3
2.37499999999999988898e-01  1.87500000000000000000e-01  3.77108793948686293884e-01  1.26944209297707999440e-05 3
2.43749999999999994449e-01  1.87500000000000000000e-01  3.85045521351805586363e-01  1.31861606147976040404e-05 3
2.50000000000000000000e-01  1.87500000000000000000e-01  3.92833800659722343074e-01  1.36785338286649071904e-05 3
2.56249999999999977796e-01  1.87500000000000000000e-01  4.00470629590710891499e-01  1.41711025479773766733e-05 3
2.62500000000000011102e-01  1.87500000000000000000e-01  4.07953064240581420030e-01  1.46634381414378900388e-05 3
2.68749999999999988898e-01  1.87500000000000000000e-01  4.15278220218029514577e-01  1.51551211162725962822e-05 3
2.75000000000000022204e-01  1.87500000000000000000e-01  4.22443273757032555782e-01  1.56457408722610047391e-05 3
2.81250000000000000000e-01  1.87500000000000000000e-01  4.29445462805850219912e-01  1.61348954739182204321e-05 3
2.87499999999999977796e-01  1.87500000000000000000e-01  4.36282088092230013743e-01  1.66221914242314916521e-05 3
2.93750000000000011102e-01  1.87500000000000000000e-01  4.42950514164391018213e-01  1.71072434534402795236e-05 3
2.99999999999999988898e-01  1.87500000000000000000e-01  4.49448170407389546721e-01  1.75896743181969128500e-05 3
3.06250000000000022204e-01  1.87500000000000000000e-01  4.55772552034481415184e-01  1.80691146062228469305e-05 3
3.12500000000000000000e-01  1.87500000000000000000e-01  4.61921221053086139552e-01  1.85452025571741785370e-05 3
3.18749999999999977796e-01  1.87500000000000000000e-01  4.67891807204996790226e-01  1.90175838852280065794e-05 3
3.25000000000000011102e-01  1.87500000000000000000e-01  4.73682008880460858613e-01  1.94859116140477794943e-05 3
3.31249999999999988898e-01  1.87500000000000000000e-01  4.79289594005785579700e-01  1.99498459195757149587e-05 3
3.37500000000000022204e-01  1.87500000000000000000e-01  4.84712400904127538315e-01  2.04090539788204239358e-05 3
3.43750000000000000000e-01  1.87500000000000000000e-01  4.89948339129126497760e-01  2.08632098312455660505e-05 3
3.49999999999999977796e-01  1.87500000000000000000e-01  4.94995390271083302025e-01  2.13119942339967671785e-05 3
3.56250000000000011102e-01  1.87500000000000000000e-01  4.99851608735339403289e-01  2.17550945404987317033e-05 3
3.62499999999999988898e-01  1.87500000000000000000e-01  5.04515122492583345526e-01  2.21922045781086652028e-05 3
3.68750000000000022204e-01  1.87500000000000000000e-01  5.08984133800797544644e-01  2.26230245229386284223e-05 3
3.75000000000000000000e-01  1.87500000000000000000e-01  5.13256919898541830172e-01  2.30472607948284391455e-05 3
3.81249999999999977796e-01  1.87500000000000000000e-01  5.17331833669338103654e-01  2.34646259439363902288e-05 3
3.87500000000000011102e-01  1.87500000000000000000e-01  5.21207304276870231341e-01  2.38748385561482479034e-05 3
3.93749999999999988898e-01  1.87500000000000000000e-01  5.24881837770786785491e-01  2.42776231457186852936e-05 3
4.00000000000000022204e-01  1.87500000000000000000e-01  5.28354017662845509840e-01  2.46727100640109497931e-05 3
4.06250000000000000000e-01  1.87500000000000000000e-01  5.31622505473186235392e-01  2.50598354134545786565e-05 3
4.12499999999999977796e-01  1.87500000000000000000e-01  5.34686041246541288174e-01  2.54387409478473713875e-05 3
4.18750000000000011102e-01  1.87500000000000000000e-01  5.37543444038146356334e-01  2.58091739987476032070e-05 3
4.24999999999999988898e-01  1.87500000000000000000e-01  5.40193612369207043500e-01  2.61708873821042686814e-05 3
4.31250000000000022204e-01  1.87500000000000000000e-01  5.42635524651706613319e-01  2.65236393276468973568e-05 3
4.37500000000000000000e-01  1.87500000000000000000e-01  5.44868239582426583389e-01  2.68671933919550909309e-05 3
4.43749999999999977796e-01  1.87500000000000000000e-01  5.46890896506005641520e-01  2.72013183827413129734e-05 3
4.50000000000000011102e-01  1.87500000000000000000e-01  5.48702715746898106453e-01  2.75257882867974146279e-05 3
4.56249999999999988898e-01  1.87500000000000000000e-01  5.50302998910122798115e-01  2.78403821890593761168e-05 3
4.62500000000000022204e-01  1.87500000000000000000e-01  5.51691129150659098634e-01  2.81448842061049475660e-05 3
4.68750000000000000000e-01  1.87500000000000000000e-01  5.52866571411420149040e-01  2.84390834013326099239e-05 3
4.74999999999999977796e-01  1.87500000000000000000e-01  5.53828872629678614636e-01  2.87227737157946805269e-05 3
4.81250000000000011102e-01  1.87500000000000000000e-01  5.54577661911879737922e-01  2.89957538982532625482e-05 3
4.87499999999999988898e-01  1.87500000000000000000e-01  5.55112650676786278936e-01  2.92578274246890757126e-05 3
4.93750000000000022204e-01  1.87500000000000000000e-01  5.55433632766882401377e-01  2.95088024238054913440e-05 3
5.00000000000000000000e-01  1.87500000000000000000e-01  5.55540484527994204988e-01  2.97484916079726602334e-05 3
5.06249999999999977796e-01  1.87500000000000000000e-01  5.55433164857126238090e-01  2.99767121799687785710e-05 3
5.12499999999999955591e-01  1.87500000000000000000e-01  5.55111715218438162012e-01  3.01932857728060000113e-05 3
5.18750000000000044409e-01  1.87500000000000000000e-01  5.54576259627422074594e-01  3.03980383559165900920e-05 3
5.25000000000000022204e-01  1.87500000000000000000e-01  5.53827004603237416092e-01  3.05908001569932253005e-05 3
5.31250000000000000000e-01  1.87500000000000000000e-01  5.52864239089242426317e-01  3.07714055791663554373e-05 3
5.37499999999999977796e-01  1.87500000000000000000e-01  5.51688334341756125845e-01  3.09396931090777371764e-05 3
5.43749999999999955591e-01  1.87500000000000000000e-01  5.50299743787078687873e-01  3.10955052331696180090e-05 3
5.50000000000000044409e-01  1.87500000000000000000e-01  5.48699002846848249426e-01  3.12386883365434186999e-05 3
5.56250000000000022204e-01  1.87500000000000000000e-01  5.46886728731772131518e-01  3.13690926162513150643e-05 3
5.62500000000000000000e-01  1.87500000000000000000e-01  5.44863620203844156720e-01  3.14865719743817606968e-05 3
5.68749999999999977796e-01  1.87500000000000000000e-01  5.42630457307116120802e-01  3.15909839181394147545e-05 3
5.74999999999999955591e-01  1.87500000000000000000e-01  5.40188101067140880041e-01  3.16821894483787502850e-05 3
5.81250000000000044409e-01  1.87500000000000000000e-01  5.37537493159189083691e-01  3.17600529560202460289e-05 3
5.87500000000000022204e-01  1.87500000000000000000e-01  5.34679655545390986049e-01  3.18244420981494968714e-05 3
5.93750000000000000000e-01  1.87500000000000000000e-01  5.31615690080921465821e-01  3.18752276782241494857e-05 3
5.99999999999999977796e-01  1.87500000000000000000e-01  5.28346778089389124133e-01  3.19122835205076782472e-05 3
6.06249999999999955591e-01  1.87500000000000000000e-01  5.24874179907591775773e-01  3.19354863407284028654e-05 3
6.12500000000000044409e-01  1.87500000000000000000e-01  5.21199234399819522068e-01  3.19447156068575210952e-05 3
6.18750000000000022204e-01  1.87500000000000000000e-01  5.17323358441885816639e-01  3.19398533963344277709e-05 3
6.25000000000000000000e-01  1.87500000000000000000e-01  5.13248046375094579830e-01  3.19207842420787812898e-05 3
6.31249999999999977796e-01  1.87500000000000000000e-01  5.08974869430339871279e-01  3.18873949806119938444e-05 3
6.37499999999999955591e-01  1.87500000000000000000e-01  5.04505475122573932012e-01  3.18395745876332014745e-05 3
6.43750000000000044409e-01  1.87500000000000000000e-01  4.99841586615871358301e-01  3.17772140084882082078e-05 3
6.50000000000000022204e-01  1.87500000000000000000e-01  4.94985002059341649971e-01  3.17002059757043319621e-05 3
6.56250000000000000000e-01  1.87500000000000000000e-01  4.89937593894132605854e-01  3.16084448251929828189e-05 3
6.62499999999999977796e-01  1.87500000000000000000e-01  4.84701308131803676460e-01  3.15018263027933009823e-05 3
6.68749999999999955591e-01  1.87500000000000000000e-01  4.79278163604349716209e-01  3.13802473555502281499e-05 3
6.75000000000000044409e-01  1.87500000000000000000e-01  4.73670251186149415812e-01  3.12436059255460918394e-05 3
6.81250000000000022204e-01  1.87500000000000000000e-01  4.67879732988157215345e-01  3.10918007248583982971e-05 3
6.87500000000000000000e-01  1.87500000000000000000e-01  4.61908841524641289311e-01  3.09247310021909527222e-05 3
6.93749999999999977796e-01  1.87500000000000000000e-01  4.55759878852786404213e-01  3.07422963012338179567e-05 3
6.99999999999999955591e-01  1.87500000000000000000e-01  4.49435215685499545035e-01  3.05443962081985986856e-05 3
7.06250000000000044409e-01  1.87500000000000000000e-01  4.42937290477752487750e-01  3.03309300919707425237e-05 3
7.12500000000000022204e-01  1.87500000000000000000e-01  4.36268608486832243365e-01  3.01017968220018694581e-05 3
7.18750000000000000000e-01  1.87500000000000000000e-01  4.29431740806838824209e-01  2.98568944853694340225e-05 3
7.24999999999999977796e-01  1.87500000000000000000e-01  4.22429323377813470408e-01  2.95961200913463784445e-05 3
7.31249999999999955591e-01  1.87500000000000000000e-01  4.15264055969894518849e-01  2.93193692514903681001e-05 3
7.37500000000000044409e-01  1.87500000000000000000e-01  4.07938701142855353332e-01  2.90265358674490769886e-05 3
7.43750000000000022204e-01  1.87500000000000000000e-01  4.00456083181473410093e-01  2.87175117855698047720e-05 3
7.50000000000000000000e-01  1.87500000000000000000e-01  3.92819087007098388664e-01  2.83921864526748279900e-05 3
7.56249999999999977796e-01  1.87500000000000000000e-01  3.85030657065869419409e-01  2.80504465509645584120e-05 3
7.62499999999999955591e-01  1.87500000000000000000e-01  3.77093796193992469856e-01  2.76921756238168725872e-05 3
7.68750000000000044409e-01  1.87500000000000000000e-01  3.69011564460522634157e-01  2.73172536868759863182e-05 3
7.75000000000000022204e-01  1.87500000000000000000e-01  3.60787077988099169623e-01  2.69255568268733647130e-05 3
7.81250000000000000000e-01  1.87500000000000000000e-01  3.52423507752082032507e-01  2.65169567851830656480e-05 3
7.87499999999999977796e-01  1.87500000000000000000e-01  3.43924078358553431123e-01  2.60913205369361911323e-05 3
7.93749999999999955591e-01  1.87500000000000000000e-01  3.35292066801668064979e-01  2.56485098431569191746e-05 3
8.00000000000000044409e-01  1.87500000000000000000e-01  3.26530801200804188245e-01  2.51883808108366302747e-05 3
8.06250000000000022204e-01  1.87500000000000000000e-01  3.17643659518028032007e-01  2.47107834295268169456e-05 3
8.12500000000000000000e-01  1.87500000000000000000e-01  3.08634068256348537140e-01  2.42155611065442144536e-05 3
8.18749999999999977796e-01  1.87500000000000000000e-01  2.99505501139277319211e-01  2.37025501846899189218e-05 3
8.24999999999999955591e-01  1.87500000000000000000e-01  2.90261477772173814849e-01  2.31715794736242486351e-05 3
8.31250000000000044409e-01  1.87500000000000000000e-01  2.80905562285925780586e-01  2.26224697610910574497e-05 3
8.37500000000000022204e-01  1.87500000000000000000e-01  2.71441361963459859563e-01  2.20550333306368528952e-05 3
8.43750000000000000000e-01  1.87500000000000000000e-01  2.61872525849610515714e-01  2.14690734892108991971e-05 3
8.49999999999999977796e-01  1.87500000000000000000e-01  2.52202743344900837119e-01  2.08643840848288242285e-05 3
8.56249999999999955591e-01  1.87500000000000000000e-01  2.42435742783737001593e-01  2.02407490595135630684e-05 3
8.62500000000000044409e-01  1.87500000000000000000e-01  2.32575289997600437308e-01  1.95979419939096288772e-05 3
8.68750000000000022204e-01  1.87500000000000000000e-01  2.22625186863754126465e-01  1.89357256916988792028e-05 3
8.75000000000000000000e-01  1.87500000000000000000e-01  2.12589269840030653524e-01  1.82538517835006963708e-05 3
8.81249999999999977796e-01  1.87500000000000000000e-01  2.02471408486259080162e-01  1.75520603709622413646e-05 3
8.87499999999999955591e-01  1.87500000000000000000e-01  1.92275503972900857486e-01  1.68300797010467739767e-05 3
8.93750000000000044409e-01  1.87500000000000000000e-01  1.82005487577434788005e-01  1.60876259092668227879e-05 3
9.00000000000000022204e-01  1.87500000000000000000e-01  1.71665319169110069941e-01  1.53244027966126239448e-05 3
9.06250000000000000000e-01  1.87500000000000000000e-01  1.61258985682580929799e-01  1.45401017007384947277e-05 3
9.12499999999999977796e-01  1.87500000000000000000e-01  1.50790499581070741586e-01  1.37344014143891968160e-05 3
9.18749999999999955591e-01  1.87500000000000000000e-01  1.40263897309586937912e-01  1.29069682113236439136e-05 3
9.25000000000000044409e-01  1.87500000000000000000e-01  1.29683237738823065044e-01  1.20574559481778642578e-05 3
9.31250000000000022204e-01  1.87500000000000000000e-01  1.19052600600310976020e-01  1.11855062728538623418e-05 3
9.37500000000000000000e-01  1.87500000000000000000e-01  1.08376084913428177847e-01  1.02907489416131925353e-05 3
9.43749999999999977796e-01  1.87500000000000000000e-01  9.76578074048607414070e-02  9.37280224792835792158e-06 3
9.49999999999999955591e-01  1.87500000000000000000e-01  8.69019009211407927884e-02  8.43127355713846338148e-06 3
9.56250000000000044409e-01  1.87500000000000000000e-01  7.61125128348316554172e-02  7.46575998068765844806e-06 3
9.62500000000000022204e-01  1.87500000000000000000e-01  6.52938034450340903936e-02  6.47584913431031861109e-06 3
9.68750000000000000000e-01  1.87500000000000000000e-01  5.44499443727516629910e-02  5.46112005748999873589e-06 3
9.74999999999999977796e-01  1.87500000000000000000e-01  4.35851169518366929334e-02  4.42114418946343290528e-06 3
9.81249999999999955591e-01  1.87500000000000000000e-01  3.27035106160549829402e-02  3.35548648761063716961e-06 3
9.87500000000000044409e-01  1.87500000000000000000e-01  2.18093212829698554489e-02  2.26370660248373378742e-06 3
9.93750000000000022204e-01  1.87500000000000000000e-01  1.09067497352440725272e-02  1.14536014252791806811e-06 3
1.00000000000000000000e+00  1.87500000000000000000e-01  0.00000000000000000000e+00  6.80377307569004957322e-17 3
0.00000000000000000000e+00  1.93750000000000005551e-01  0.00000000000000000000e+00  0.00000000000000000000e+00 3
6.25000000000000034694e-03  1.93750000000000005551e-01  1.12262672957704739279e-02  4.16680284304193904177e-08 3
1.25000000000000006939e-02  1.93750000000000005551e-01  2.24481804196100011295e-02  1.09552179706345897969e-07 3
1.87499999999999993061e-02  1.93750000000000005551e-01  3.36614139633001005492e-02  2.02773373543518875550e-07 3
2.50000000000000013878e-02  1.93750000000000005551e-01  4.48616458522117858565e-02  3.20455315637457882616e-07 3
3.12500000000000000000e-02  1.93750000000000005551e-01  5.60445590105290158967e-02  4.61725854071504127063e-07 3
3.74999999999999986122e-02  1.93750000000000005551e-01  6.72058430245924959268e-02  6.25718286628718090014e-07 3
4.37499999999999972244e-02  1.93750000000000005551e-01  7.83411958037343453265e-02  8.11572606798649509585e-07 3
5.00000000000000027756e-02  1.93750000000000005551e-01  8.94463252379763124056e-02  1.01843667502099499700e-06 3
5.62500000000000013878e-02  1.93750000000000005551e-01  1.00516950851961286983e-01  1.24546730559393914461e-06 3
6.25000000000000000000e-02  1.93750000000000005551e-01  1.11548805454492042100e-01  1.49183125795759874421e-06 3
6.87500000000000055511e-02  1.93750000000000005551e-01  1.22537636783040762567e-01  1.75670613175582523979e-06 3
7.49999999999999972244e-02  1.93750000000000005551e-01  1.33479209142604443583e-01  2.03928115646845320441e-06 3
8.12500000000000027756e-02  1.93750000000000005551e-01  1.44369305038271805719e-01  2.33875787841730797822e-06 3
8.74999999999999944489e-02  1.93750000000000005551e-01  1.55203726800869440394e-01  2.65435074681130700469e-06 3
9.37500000000000000000e-02  1.93750000000000005551e-01  1.65978298205064850324e-01  2.98528759490324091530e-06 3
1.00000000000000005551e-01  1.93750000000000005551e-01  1.76688866079289852440e-01  3.33081002884538790454e-06 3
1.06249999999999997224e-01  1.93750000000000005551e-01  1.87331301906863034734e-01  3.69017372400803900234e-06 3
1.12500000000000002776e-01  1.93750000000000005551e-01  1.97901503417688501285e-01  4.06264863525573893810e-06 3
1.18749999999999994449e-01  1.93750000000000005551e-01  2.08395396169904711936e-01  4.44751913245000629615e-06 3
1.25000000000000000000e-01  1.93750000000000005551e-01  2.18808935120875319713e-01  4.84408406078995490418e-06 3
1.31250000000000005551e-01  1.93750000000000005551e-01  2.29138106186899920269e-01  5.25165674086780498442e-06 3
1.37500000000000011102e-01  1.93750000000000005551e-01  2.39378927791044110451e-01  5.66956490943848478992e-06 3
1.43749999999999988898e-01  1.93750000000000005551e-01  2.49527452398475652062e-01  6.09715061569704452893e-06 3
1.49999999999999994449e-01  1.93750000000000005551e-01  2.59579768038721792056e-01  6.53377006798461223980e-06 3
1.56250000000000000000e-01  1.93750000000000005551e-01  2.69531999814236700175e-01  6.97879345301632980636e-06 3
1.62500000000000005551e-01  1.93750000000000005551e-01  2.79380311394709590633e-01  7.43160471777803977034e-06 3
1.68750000000000011102e-01  1.93750000000000005551e-01  2.89120906496519058937e-01  7.89160133085609061254e-06 3
1.74999999999999988898e-01  1.93750000000000005551e-01  2.98750030346763617572e-01  8.35819402378312759083e-06 3
1.81249999999999994449e-01  1.93750000000000005551e-01  3.08263971131300218431e-01  8.83080651631340529661e-06 3
1.87500000000000000000e-01  1.93750000000000005551e-01  3.17659061426226074776e-01  9.30887523148404838480e-06 3
1.93750000000000005551e-01  1.93750000000000005551e-01  3.26931679612247449995e-01  9.79184900601337560033e-06 3
2.00000000000000011102e-01  1.93750000000000005551e-01  3.36078251271396455380e-01  1.02791887892084154998e-05 3
2.06249999999999988898e-01  1.93750000000000005551e-01  3.45095250565538635978e-01  1.07703673490888718334e-05 3
2.12499999999999994449e-01  1.93750000000000005551e-01  3.53979201596154868792e-01  1.12648689718497507783e-05 3
2.18750000000000000000e-01  1.93750000000000005551e-01  3.62726679744859503707e-01  1.17621891673191925065e-05 3
2.25000000000000005551e-01  1.93750000000000005551e-01  3.71334312994139215114e-01  1.22618343802449736302e-05 3
2.31250000000000011102e-01  1.93750000000000005551e-01  3.79798783227807412732e-01  1.27633217030242995804e-05 3
2.37499999999999988898e-01  1.93750000000000005551e-01  3.88116827510667172785e-01  1.32661785960386247041e-05 3
2.43749999999999994449e-01  1.93750000000000005551e-01  3.96285239346883422229e-01  1.37699426212556375049e-05 3
2.50000000000000000000e-01  1.93750000000000005551e-01  4.04300869916595972953e-01  1.42741611725560879620e-05 3
2.56249999999999977796e-01  1.93750000000000005551e-01  4.12160629290272417791e-01  1.47783912273213857702e-05 3
2.62500000000000011102e-01  1.93750000000000005551e-01  4.19861487620357576311e-01  1.52821990946350183549e-05 3
2.68749999999999988898e-01  1.93750000000000005551e-01  4.27400476309733712288e-01  1.57851601856884293795e-05 3
2.75000000000000022204e-01  1.93750000000000005551e-01  4.34774689156567473169e-01  1.62868587821884958089e-05 3
2.81250000000000000000e-01  1.93750000000000005551e-01  4.41981283475082920020e-01  1.67868878182542147215e-05 3
2.87499999999999977796e-01  1.93750000000000005551e-01  4.49017481191835599041e-01  1.72848486742482876366e-05 3
2.93750000000000011102e-01  1.93750000000000005551e-01  4.55880569917068656505e-01  1.77803509737728404616e-05 3
2.99999999999999988898e-01  1.93750000000000005551e-01  4.62567903990728945818e-01  1.82730123959307100279e-05 3
3.06250000000000022204e-01  1.93750000000000005551e-01  4.69076905502750385324e-01  1.87624584916945558177e-05 3
3.12500000000000000000e-01  1.93750000000000005551e-01  4.75405065287206995972e-01  1.92483225089357112836e-05 3
3.18749999999999977796e-01  1.93750000000000005551e-01  4.81549943889949372267e-01  1.97302452282221985058e-05 3
3.25000000000000011102e-01  1.93750000000000005551e-01  4.87509172509357102676e-01  2.02078748053335921497e-05 3
3.31249999999999988898e-01  1.93750000000000005551e-01  4.93280453909847149685e-01  2.06808666158853071693e-05 3
3.37500000000000022204e-01  1.93750000000000005551e-01  4.98861563307770317088e-01  2.11488831206585459199e-05 3
3.43750000000000000000e-01  1.93750000000000005551e-01  5.04250349229386274352e-01  2.16115937163863236492e-05 3
3.49999999999999977796e-01  1.93750000000000005551e-01  5.09444734340543270434e-01  2.20686746181808501888e-05 3
3.56250000000000011102e-01  1.93750000000000005551e-01  5.14442716247787590333e-01  2.25198087263622781506e-05 3
3.62499999999999988898e-01  1.93750000000000005551e-01  5.19242368270565690658e-01  2.29646855074427946874e-05 3
3.68750000000000022204e-01  1.93750000000000005551e-01  5.23841840184225415733e-01  2.34030008848806758692e-05 3
3.75000000000000000000e-01  1.93750000000000005551e-01  5.28239358933536795604e-01  2.38344571318327425047e-05 3
3.81249999999999977796e-01  1.93750000000000005551e-01  5.32433229316467970804e-01  2.42587627572454778146e-05 3
3.87500000000000011102e-01  1.93750000000000005551e-01  5.36421834637919370259e-01  2.46756324163710516473e-05 3
3.93749999999999988898e-01  1.93750000000000005551e-01  5.40203637333199870874e-01  2.50847868108472482618e-05 3
4.00000000000000022204e-01  1.93750000000000005551e-01  5.43777179560991030804e-01  2.54859525936623754205e-05 3
4.06250000000000000000e-01  1.93750000000000005551e-01  5.47141083765563140950e-01  2.58788622830019576782e-05 3
4.12499999999999977796e-01  1.93750000000000005551e-01  5.50294053208039368741e-01  2.62632541758733850656e-05 3
4.18750000000000011102e-01  1.93750000000000005551e-01  5.53234872466497606958e-01  2.66388722642840747312e-05 3
4.24999999999999988898e-01  1.93750000000000005551e-01  5.55962407904727951014e-01  2.70054661452023836432e-05 3
4.31250000000000022204e-01  1.93750000000000005551e-01  5.58475608109427534842e-01  2.73627909601614760504e-05 3
4.37500000000000000000e-01  1.93750000000000005551e-01  5.60773504295734026570e-01  2.77106072957833404757e-05 3
4.43749999999999977796e-01  1.93750000000000005551e-01  5.62855210680863748962e-01  2.80486811240487909913e-05 3
4.50000000000000011102e-01  1.93750000000000005551e-01  5.64719924825773267330e-01  2.83767837157000712978e-05 3
4.56249999999999988898e-01  1.93750000000000005551e-01  5.66366927944670695005e-01  2.86946915735164509442e-05 3
4.62500000000000022204e-01  1.93750000000000005551e-01  5.67795585182286011161e-01  2.90021863535994128824e-05 3
4.68750000000000000000e-01  1.93750000000000005551e-01  5.69005345858780042789e-01  2.92990547892113539774e-05 3
4.74999999999999977796e-01  1.93750000000000005551e-01  5.69995743682189082158e-01  2.95850886259385603694e-05 3
4.81250000000000011102e-01  1.93750000000000005551e-01  5.70766396928351849027e-01  2.98600845395347036515e-05 3
4.87499999999999988898e-01  1.93750000000000005551e-01  5.71317008588222430276e-01  3.01238440633122550594e-05 3
4.93750000000000022204e-01  1.93750000000000005551e-01  5.71647366482520569164e-01  3.03761735170882118950e-05 3
5.00000000000000000000e-01  1.93750000000000005551e-01  5.71757343343687329806e-01  3.06168839249165714023e-05 3
5.06249999999999977796e-01  1.93750000000000005551e-01  5.71646896865097509099e-01  3.08457909401482766043e-05 3
5.12499999999999955591e-01  1.93750000000000005551e-01  5.71316069717516916704e-01  3.10627147688258276048e-05 3
5.18750000000000044409e-01  1.93750000000000005551e-01  5.70764989532805411265e-01  3.12674800859724655311e-05 3
5.25000000000000022204e-01  1.93750000000000005551e-01  5.69993868854862473228e-01  3.14599159525474902921e-05 3
5.31250000000000000000e-01  1.93750000000000005551e-01  5.69003005057839184033e-01  3.16398557300701099848e-05 3
5.37499999999999977796e-01  1.93750000000000005551e-01  5.67792780231641369681e-01  3.18071369982408924670e-05 3
5.43749999999999955591e-01  1.93750000000000005551e-01  5.66363661034788745674e-01  3.19616014554657823510e-05 3
5.50000000000000044409e-01  1.93750000000000005551e-01  5.64716198514650713491e-01  3.21030948381428871130e-05 3
5.56250000000000022204e-01  1.93750000000000005551e-01  5.62851027895177491445e-01  3.22314668103063084459e-05 3
5.62500000000000000000e-01  1.93750000000000005551e-01  5.60768868332155778766e-01  3.23465708740311441716e-05 3
5.68749999999999977796e-01  1.93750000000000005551e-01  5.58470522636127397753e-01  3.24482642602985649205e-05 3
5.74999999999999955591e-01  1.93750000000000005551e-01  5.55956876963050738993e-01  3.25364078225254260701e-05 3
5.81250000000000044409e-01  1.93750000000000005551e-01  5.53228900472832796353e-01  3.26108659290946789611e-05 3
5.87500000000000022204e-01  1.93750000000000005551e-01  5.50287644955878674224e-01  3.26715063365679014851e-05 3
5.93750000000000000000e-01  1.93750000000000005551e-01  5.47134244427768035024e-01  3.27182000781078841101e-05 3
5.99999999999999977796e-01  1.93750000000000005551e-01  5.43769914692251776778e-01  3.27508213330274244868e-05 3
6.06249999999999955591e-01  1.93750000000000005551e-01  5.40195952872713158754e-01  3.27692472976703896848e-05 3
6.12500000000000044409e-01  1.93750000000000005551e-01  5.36413736912293770409e-01  3.27733580419709014109e-05 3
6.18750000000000022204e-01  1.93750000000000005551e-01  5.32424725042853430601e-01  3.27630363718967032582e-05 3
6.25000000000000000000e-01  1.93750000000000005551e-01  5.28230455222990502584e-01  3.27381676781257624498e-05 3
6.31249999999999977796e-01  1.93750000000000005551e-01  5.23832544545327571939e-01  3.26986397827244701375e-05 3
6.37499999999999955591e-01  1.93750000000000005551e-01  5.19232688613305959358e-01  3.26443427672851171906e-05 3