Titile = 'Poisson'  
VARIABLES = X, Y, U, Error, Rank 
zone N= 1771, E = 3200
DATAPACKING=POINT, ZONETYPE=FETRIANGLE
0.00000000000000000000e+00  5.62500000000000000000e-01  0.00000000000000000000e+00  0.00000000000000000000e+00 9
6.25000000000000034694e-03  5.62500000000000000000e-01  1.92511757053388798955e-02  5.26086000923742247437e-06 9
1.25000000000000006939e-02  5.62500000000000000000e-01  3.84950348517137178050e-02  1.04145561235571837422e-05 9
1.87499999999999993061e-02  5.62500000000000000000e-01  5.77281801369291941439e-02  1.14375296657656666532e-05 9
2.50000000000000013878e-02  5.62500000000000000000e-01  7.69390701097970308719e-02  1.24560938212642247080e-05 9
3.12500000000000000000e-02  5.62500000000000000000e-01  9.61202986065309850083e-02  1.34698559198925815750e-05 9
3.74999999999999986122e-02  5.62500000000000000000e-01  1.15264470898427479062e-01  1.44784251237539685064e-05 9
4.37499999999999972244e-02  5.62500000000000000000e-01  1.34364206542618241924e-01  1.54814126339664070997e-05 9
5.00000000000000027756e-02  5.62500000000000000000e-01  1.53412142227466297140e-01  1.64784317458754880903e-05 9
5.62500000000000013878e-02  5.62500000000000000000e-01  1.72400934611132011787e-01  1.74690981286640401038e-05 9
6.25000000000000000000e-02  5.62500000000000000000e-01  1.91323263152723826996e-01  1.84530298210361376476e-05 9
6.87500000000000055511e-02  5.62500000000000000000e-01  2.10171832934343688626e-01  1.94298475409693249816e-05 9
7.49999999999999972244e-02  5.62500000000000000000e-01  2.28939377473585836675e-01  2.03991746624831993273e-05 9
8.12500000000000027756e-02  5.62500000000000000000e-01  2.47618661524735550472e-01  2.13606375299990602912e-05 9
8.74999999999999944489e-02  5.62500000000000000000e-01  2.66202483868244077492e-01  2.23138654518173495944e-05 9
9.37500000000000000000e-02  5.62500000000000000000e-01  2.84683680086801171871e-01  2.32584909778954518345e-05 9
1.00000000000000005551e-01  5.62500000000000000000e-01  3.03055125327505947563e-01  2.41941498902997764731e-05 9
1.06249999999999997224e-01  5.62500000000000000000e-01  3.21309737048481203203e-01  2.51204814950556354347e-05 9
1.12500000000000002776e-01  5.62500000000000000000e-01  3.39440477749364866167e-01  2.60371287249538951869e-05 9
1.18749999999999994449e-01  5.62500000000000000000e-01  3.57440357684624288037e-01  2.69437380530646031218e-05 9
1.25000000000000000000e-01  5.62500000000000000000e-01  3.75302437557741785934e-01  2.78399601234546878459e-05 9
1.31250000000000005551e-01  5.62500000000000000000e-01  3.93019831196954771979e-01  2.87254493767097329737e-05 9
1.37500000000000011102e-01  5.62500000000000000000e-01  4.10585708209863675666e-01  2.95998643256578652938e-05 9
1.43749999999999988898e-01  5.62500000000000000000e-01  4.27993296616260343601e-01  3.04628681042640181431e-05 9
1.49999999999999994449e-01  5.62500000000000000000e-01  4.45235885459730196256e-01  3.13141277238915272108e-05 9
1.56250000000000000000e-01  5.62500000000000000000e-01  4.62306827393792252323e-01  3.21533152616848560967e-05 9
1.62500000000000005551e-01  5.62500000000000000000e-01  4.79199541245520499455e-01  3.29801070449997624223e-05 9
1.68750000000000011102e-01  5.62500000000000000000e-01  4.95907514552156702958e-01  3.37941843308597889006e-05 9
1.74999999999999988898e-01  5.62500000000000000000e-01  5.12424306071806778817e-01  3.45952334105392722563e-05 9
1.81249999999999994449e-01  5.62500000000000000000e-01  5.28743548267164631405e-01  3.53829452280907119643e-05 9
1.87500000000000000000e-01  5.62500000000000000000e-01  5.44858949759438604410e-01  3.61570163799340704713e-05 9
1.93750000000000005551e-01  5.62500000000000000000e-01  5.60764297754733354040e-01  3.69171482964558705930e-05 9
2.00000000000000011102e-01  5.62500000000000000000e-01  5.76453460438683396028e-01  3.76630478734485407699e-05 9
2.06249999999999988898e-01  5.62500000000000000000e-01  5.91920389340263808364e-01  3.83944277055903171458e-05 9
2.12499999999999994449e-01  5.62500000000000000000e-01  6.07159121664091805393e-01  3.91110056969790065295e-05 9
2.18750000000000000000e-01  5.62500000000000000000e-01  6.22163782588690539299e-01  3.98125056767506535493e-05 9
2.25000000000000005551e-01  5.62500000000000000000e-01  6.36928587531689016643e-01  4.04986571609367018709e-05 9
2.31250000000000011102e-01  5.62500000000000000000e-01  6.51447844379551277427e-01  4.11691957945548026032e-05 9
2.37499999999999988898e-01  5.62500000000000000000e-01  6.65715955683006899157e-01  4.18238624411149118032e-05 9
2.43749999999999994449e-01  5.62500000000000000000e-01  6.79727420812410332296e-01  4.24624058465994380640e-05 9
2.50000000000000000000e-01  5.62500000000000000000e-01  6.93476838082363933324e-01  4.30845787097178245517e-05 9
2.56249999999999977796e-01  5.62500000000000000000e-01  7.06958906830085997974e-01  4.36901418633395266511e-05 9
2.62500000000000011102e-01  5.62500000000000000000e-01  7.20168429461634729272e-01  4.42788616479283803073e-05 9
2.68749999999999988898e-01  5.62500000000000000000e-01  7.33100313454767560373e-01  4.48505109139629709603e-05 9
2.75000000000000022204e-01  5.62500000000000000000e-01  7.45749573321641712198e-01  4.54048696739706159065e-05 9
2.81250000000000000000e-01  5.62500000000000000000e-01  7.58111332532350745694e-01  4.59417236495784919725e-05 9
2.87499999999999977796e-01  5.62500000000000000000e-01  7.70180825392539736285e-01  4.64608667358756832755e-05 9
2.93750000000000011102e-01  5.62500000000000000000e-01  7.81953398883900807625e-01  4.69620978507112596390e-05 9
2.99999999999999988898e-01  5.62500000000000000000e-01  7.93424514454627582971e-01  4.74452243839351694987e-05 9
3.06250000000000022204e-01  5.62500000000000000000e-01  8.04589749771683626633e-01  4.79100597022830143601e-05 9
3.12500000000000000000e-01  5.62500000000000000000e-01  8.15444800423942628420e-01  4.83564249744716789792e-05 9
3.18749999999999977796e-01  5.62500000000000000000e-01  8.25985481583092706614e-01  4.87841477683215174466e-05 9
3.25000000000000011102e-01  5.62500000000000000000e-01  8.36207729615520034550e-01  4.91930635647674918687e-05 9
3.31249999999999988898e-01  5.62500000000000000000e-01  8.46107603650607997814e-01  4.95830141292730175451e-05 9
3.37500000000000022204e-01  5.62500000000000000000e-01  8.55681287097591947166e-01  4.99538500002838503633e-05 9
3.43750000000000000000e-01  5.62500000000000000000e-01  8.64925089120303081103e-01  5.03054271697722654721e-05 9
3.49999999999999977796e-01  5.62500000000000000000e-01  8.73835446056171694096e-01  5.06376110243067500960e-05 9
3.56250000000000011102e-01  5.62500000000000000000e-01  8.82408922793488814662e-01  5.09502729947319821235e-05 9
3.62499999999999988898e-01  5.62500000000000000000e-01  8.90642214093730677504e-01  5.12432925813266493265e-05 9
3.68750000000000022204e-01  5.62500000000000000000e-01  8.98532145866227427433e-01  5.15165569656694799505e-05 9
3.75000000000000000000e-01  5.62500000000000000000e-01  9.06075676391987494540e-01  5.17699609002830740678e-05 9
3.81249999999999977796e-01  5.62500000000000000000e-01  9.13269897496787330660e-01  5.20034063016261427492e-05 9
3.87500000000000011102e-01  5.62500000000000000000e-01  9.20112035671023176242e-01  5.22168035917980333238e-05 9
3.93749999999999988898e-01  5.62500000000000000000e-01  9.26599453140458662048e-01  5.24100702258278872137e-05 9
4.00000000000000022204e-01  5.62500000000000000000e-01  9.32729648882232198481e-01  5.25831316294800288347e-05 9
4.06250000000000000000e-01  5.62500000000000000000e-01  9.38500259588818552814e-01  5.27359214574918411245e-05 9
4.12499999999999977796e-01  5.62500000000000000000e-01  9.43909060580399694729e-01  5.28683803482365988202e-05 9
4.18750000000000011102e-01  5.62500000000000000000e-01  9.48953966660634917751e-01  5.29804578337511600239e-05 9
4.24999999999999988898e-01  5.62500000000000000000e-01  9.53633032923033474582e-01  5.30721098686015579915e-05 9
4.31250000000000022204e-01  5.62500000000000000000e-01  9.57944455497603875038e-01  5.31433019965721342714e-05 9
4.37500000000000000000e-01  5.62500000000000000000e-01  9.61886572249324056649e-01  5.31940063193125922680e-05 9
4.43749999999999977796e-01  5.62500000000000000000e-01  9.65457863417333306266e-01  5.32242031008323124297e-05 9
4.50000000000000011102e-01  5.62500000000000000000e-01  9.68656952200748877502e-01  5.32338808546528596821e-05 9
4.56249999999999988898e-01  5.62500000000000000000e-01  9.71482605289333167597e-01  5.32230364638230923902e-05 9
4.62500000000000022204e-01  5.62500000000000000000e-01  9.73933733341051377508e-01  5.31916730893700062666e-05 9
4.68750000000000000000e-01  5.62500000000000000000e-01  9.76009391398434678067e-01  5.31398037680874679722e-05 9
4.74999999999999977796e-01  5.62500000000000000000e-01  9.77708779256773574673e-01  5.30674475132109080278e-05 9
4.81250000000000011102e-01  5.62500000000000000000e-01  9.79031241768855697849e-01  5.29746330628633188553e-05 9
4.87499999999999988898e-01  5.62500000000000000000e-01  9.79976269100502950238e-01  5.28613959042134595734e-05 9
4.93750000000000022204e-01  5.62500000000000000000e-01  9.80543496925804336506e-01  5.27277795776548430240e-05 9
5.00000000000000000000e-01  5.62500000000000000000e-01  9.80732706567613909954e-01  5.25738356165206255355e-05 9
5.06249999999999977796e-01  5.62500000000000000000e-01  9.80543825081912734376e-01  5.23996234692569728963e-05 9
5.12499999999999955591e-01  5.62500000000000000000e-01  9.79976925285652722408e-01  5.22052107544412891116e-05 9
5.18750000000000044409e-01  5.62500000000000000000e-01  9.79032225731099492450e-01  5.19906708190687183446e-05 9
5.25000000000000022204e-01  5.62500000000000000000e-01  9.77710090615451332674e-01  5.17560888354529069488e-05 9
5.31250000000000000000e-01  5.62500000000000000000e-01  9.76011029649222372484e-01  5.15015529805040728206e-05 9
5.37499999999999977796e-01  5.62500000000000000000e-01  9.73935697851805115555e-01  5.12271623356319594222e-05 9
5.43749999999999955591e-01  5.62500000000000000000e-01  9.71484895302281437068e-01  5.09330235155536215075e-05 9
5.50000000000000044409e-01  5.62500000000000000000e-01  9.68659566833894758453e-01  5.06192477086608860759e-05 9
5.56250000000000022204e-01  5.62500000000000000000e-01  9.65460801662219259001e-01  5.02859582148795780654e-05 9
5.62500000000000000000e-01  5.62500000000000000000e-01  9.61889832973573777331e-01  4.99332820695919110676e-05 9
5.68749999999999977796e-01  5.62500000000000000000e-01  9.57948037443861033502e-01  4.95613557394136705625e-05 9
5.74999999999999955591e-01  5.62500000000000000000e-01  9.53636934709832906343e-01  4.91703230692808190838e-05 9
5.81250000000000044409e-01  5.62500000000000000000e-01  9.48958186784909174527e-01  4.87603335594943843034e-05 9
5.87500000000000022204e-01  5.62500000000000000000e-01  9.43913597414090754789e-01  4.83315466571765384174e-05 9
5.93750000000000000000e-01  5.62500000000000000000e-01  9.38505111383592161012e-01  4.78841266838836432385e-05 9
5.99999999999999977796e-01  5.62500000000000000000e-01  9.32734813767464254752e-01  4.74182463975347801011e-05 9
6.06249999999999955591e-01  5.62500000000000000000e-01  9.26604929124914877825e-01  4.69340857696121105391e-05 9
6.12500000000000044409e-01  5.62500000000000000000e-01  9.20117820644084316584e-01  4.64318305305466694222e-05 9
6.18750000000000022204e-01  5.62500000000000000000e-01  9.13275989227523510294e-01  4.59116755655575303763e-05 9
6.25000000000000000000e-01  5.62500000000000000000e-01  9.06082072532125137876e-01  4.53738207626397382910e-05 9
6.31249999999999977796e-01  5.62500000000000000000e-01  8.98538843950086096868e-01  4.48184731070000452746e-05 9
6.37499999999999955591e-01  5.62500000000000000000e-01  8.90649211538848795122e-01  4.42458474633200538051e-05 9
6.43750000000000044409e-01  5.62500000000000000000e-01  8.82416216902781047615e-01  4.36561637023880066977e-05 9
6.50000000000000022204e-01  5.62500000000000000000e-01  8.73843034016731134983e-01  4.30496504649768851891e-05 9
6.56250000000000000000e-01  5.62500000000000000000e-01  8.64932968007633196095e-01  4.24265398397682957921e-05 9
6.62499999999999977796e-01  5.62500000000000000000e-01  8.55689453874070693473e-01  4.17870735217595878908e-05 9
6.68749999999999955591e-01  5.62500000000000000000e-01  8.46116055167272285154e-01  4.11314974652077225414e-05 9
6.75000000000000044409e-01  5.62500000000000000000e-01  8.36216462614833733191e-01  4.04600642511798724854e-05 9
6.81250000000000022204e-01  5.62500000000000000000e-01  8.25994492697585069862e-01  3.97730332760692917304e-05 9
6.87500000000000000000e-01  5.62500000000000000000e-01  8.15454086180360082636e-01  3.90706685572395073791e-05 9
6.93749999999999977796e-01  5.62500000000000000000e-01  8.04599306589993790162e-01  3.83532413921194859086e-05 9
6.99999999999999955591e-01  5.62500000000000000000e-01  7.93434338649968373680e-01  3.76210290431444605019e-05 9
7.06250000000000044409e-01  5.62500000000000000000e-01  7.81963486669783547356e-01  3.68743119679715292136e-05 9
7.12500000000000022204e-01  5.62500000000000000000e-01  7.70191172879315377742e-01  3.61133799602342264734e-05 9
7.18750000000000000000e-01  5.62500000000000000000e-01  7.58121935730814988652e-01  3.53385251854465565202e-05 9
7.24999999999999977796e-01  5.62500000000000000000e-01  7.45760428144362497171e-01  3.45500469531856424510e-05 9
7.31249999999999955591e-01  5.62500000000000000000e-01  7.33111415716693248790e-01  3.37482489886076209018e-05 9
7.37500000000000044409e-01  5.62500000000000000000e-01  7.20179774883098255955e-01  3.29334401842906743241e-05 9
7.43750000000000022204e-01  5.62500000000000000000e-01  7.06970491036783443839e-01  3.21059351661157066360e-05 9
7.50000000000000000000e-01  5.62500000000000000000e-01  6.93488656608408415849e-01  3.12660526653463222146e-05 9
7.56249999999999977796e-01  5.62500000000000000000e-01  6.79739469101701909715e-01  3.04141165550220193836e-05 9
7.62499999999999955591e-01  5.62500000000000000000e-01  6.65728229090254086664e-01  2.95504551942604720693e-05 9
7.68750000000000044409e-01  5.62500000000000000000e-01  6.51460338174151609714e-01  2.86754011940004716052e-05 9
7.75000000000000022204e-01  5.62500000000000000000e-01  6.36941296895889630392e-01  2.77892929604339755656e-05 9
7.81250000000000000000e-01  5.62500000000000000000e-01  6.22176702623331912001e-01  2.68924710353779516936e-05 9
7.87499999999999977796e-01  5.62500000000000000000e-01  6.07172247388425012637e-01  2.59852813639938062806e-05 9
7.93749999999999955591e-01  5.62500000000000000000e-01  5.91933715693618633935e-01  2.50680743508757686300e-05 9
8.00000000000000044409e-01  5.62500000000000000000e-01  5.76466982284052353869e-01  2.41412025046017220120e-05 9
8.06250000000000022204e-01  5.62500000000000000000e-01  5.60778009878591499060e-01  2.32050244383108505986e-05 9
8.12500000000000000000e-01  5.62500000000000000000e-01  5.44872846875914307319e-01  2.22598999042311618268e-05 9
8.18749999999999977796e-01  5.62500000000000000000e-01  5.28757625018527632754e-01  2.13061938653114069098e-05 9
8.24999999999999955591e-01  5.62500000000000000000e-01  5.12438557031224872773e-01  2.03442739925563387260e-05 9
8.31250000000000044409e-01  5.62500000000000000000e-01  4.95921934225478755476e-01  1.93745110088072713950e-05 9
8.37500000000000022204e-01  5.62500000000000000000e-01  4.79214124073787106628e-01  1.83972787783370783643e-05 9
8.43750000000000000000e-01  5.62500000000000000000e-01  4.62321567755187401438e-01  1.74129538667577854483e-05 9
8.49999999999999977796e-01  5.62500000000000000000e-01  4.45250777671382713674e-01  1.64219160714851319938e-05 9
8.56249999999999955591e-01  5.62500000000000000000e-01  4.28008334936855194819e-01  1.54245475098568896044e-05 9
8.62500000000000044409e-01  5.62500000000000000000e-01  4.10600886842209189531e-01  1.44212319799774668638e-05 9
8.68750000000000022204e-01  5.62500000000000000000e-01  3.93035144289085369707e-01  1.34123572463340501315e-05 9
8.75000000000000000000e-01  5.62500000000000000000e-01  3.75317879206247762003e-01  1.23983116175896412869e-05 9
8.81249999999999977796e-01  5.62500000000000000000e-01  3.57455921936313869569e-01  1.13794863634830711874e-05 9
8.87499999999999955591e-01  5.62500000000000000000e-01  3.39456158604307944859e-01  1.03562737822082695516e-05 9
8.93750000000000044409e-01  5.62500000000000000000e-01  3.21325528460944975784e-01  9.32906903117203256670e-06 9
9.00000000000000022204e-01  5.62500000000000000000e-01  3.03071021209897706328e-01  8.29826749865203439072e-06 9
9.06250000000000000000e-01  5.62500000000000000000e-01  2.84699674311006289962e-01  7.26426677283287247633e-06 9
9.12499999999999977796e-01  5.62500000000000000000e-01  2.66218570267816256880e-01  6.22746587991551692198e-06 9
9.18749999999999955591e-01  5.62500000000000000000e-01  2.47634833898617290338e-01  5.18826364848123944284e-06 9
9.25000000000000044409e-01  5.62500000000000000000e-01  2.28955629586246739438e-01  4.14706200171921501862e-06 9
9.31250000000000022204e-01  5.62500000000000000000e-01  2.10188158521241619248e-01  3.10426064301094761788e-06 9
9.37500000000000000000e-01  5.62500000000000000000e-01  1.91339655919235102077e-01  2.06026331012187924330e-06 9
9.43749999999999977796e-01  5.62500000000000000000e-01  1.72417388237873725476e-01  1.01547138717239526784e-06 9
9.49999999999999955591e-01  5.62500000000000000000e-01  1.53428650371326830149e-01  2.97121145464984692808e-08 9
9.56250000000000044409e-01  5.62500000000000000000e-01  1.34380762839086481675e-01  1.07488383424558797685e-06 9
9.62500000000000022204e-01  5.62500000000000000000e-01  1.15281068965089925071e-01  2.11964153878918537544e-06 9
9.68750000000000000000e-01  5.62500000000000000000e-01  9.61369320443267866283e-02  3.16358187568699378289e-06 9
9.74999999999999977796e-01  5.62500000000000000000e-01  7.69557325061986791104e-02  4.20630258025911363262e-06 9
9.81249999999999955591e-01  5.62500000000000000000e-01  5.77448650683688724516e-02  5.24740177346855185547e-06 9
9.87500000000000044409e-01  5.62500000000000000000e-01  3.85117358857221744883e-02  6.28647788500358295494e-06 9
9.93750000000000022204e-01  5.62500000000000000000e-01  1.92596329883506292568e-02  3.19642300228295539455e-06 9
1.00000000000000000000e+00  5.62500000000000000000e-01  0.00000000000000000000e+00  1.20111555429665550461e-16 9
0.00000000000000000000e+00  5.68749999999999977796e-01  0.00000000000000000000e+00  0.00000000000000000000e+00 9
6.25000000000000034694e-03  5.68749999999999977796e-01  1.91718477161081507498e-02  5.67320378042079909164e-06 9
1.25000000000000006939e-02  5.68749999999999977796e-01  3.83364198128833336132e-02  1.12287275183947654611e-05 9
1.87499999999999993061e-02  5.68749999999999977796e-01  5.74907457298053370387e-02  1.22466826163597497512e-05 9
2.50000000000000013878e-02  5.68749999999999977796e-01  7.66229078698599241903e-02  1.32599163872454406388e-05 9
3.12500000000000000000e-02  5.68749999999999977796e-01  9.57255304203488560644e-02  1.42680382060472732419e-05 9
3.74999999999999986122e-02  5.68749999999999977796e-01  1.14791248956635644207e-01  1.52706594308271714766e-05 9
4.37499999999999972244e-02  5.68749999999999977796e-01  1.33812713281313944158e-01  1.62673935100721145375e-05 9
5.00000000000000027756e-02  5.68749999999999977796e-01  1.52782590257762168617e-01  1.72578562181446848456e-05 9
5.62500000000000013878e-02  5.68749999999999977796e-01  1.71693566637326017199e-01  1.82416656845929558983e-05 9
6.25000000000000000000e-02  5.68749999999999977796e-01  1.90538351878623613000e-01  1.92184426327235424736e-05 9
6.87500000000000055511e-02  5.68749999999999977796e-01  2.09309680958185945210e-01  2.01878105281494413248e-05 9
7.49999999999999972244e-02  5.68749999999999977796e-01  2.28000317171369731861e-01  2.11493956154551465687e-05 9
8.12500000000000027756e-02  5.68749999999999977796e-01  2.46603054922077569167e-01  2.21028272301415640300e-05 9
8.74999999999999944489e-02  5.68749999999999977796e-01  2.65110722500824125270e-01  2.30477377692328566638e-05 9
9.37500000000000000000e-02  5.68749999999999977796e-01  2.83516184849444685678e-01  2.39837629552597242366e-05 9
1.00000000000000005551e-01  5.68749999999999977796e-01  3.01812346311782109254e-01  2.49105419904971370215e-05 9
1.06249999999999997224e-01  5.68749999999999977796e-01  3.19992153369413112607e-01  2.58277174801646580704e-05 9
1.12500000000000002776e-01  5.68749999999999977796e-01  3.38048597360584901494e-01  2.67349358992197139173e-05 9
1.18749999999999994449e-01  5.68749999999999977796e-01  3.55974717182372446533e-01  2.76318475441184041586e-05 9
1.25000000000000000000e-01  5.68749999999999977796e-01  3.73763601974415937690e-01  2.85181065675099709722e-05 9
1.31250000000000005551e-01  5.68749999999999977796e-01  3.91408393783061248072e-01  2.93933712394722768124e-05 9
1.37500000000000011102e-01  5.68749999999999977796e-01  4.08902290204973595245e-01  3.02573043375886641115e-05 9
1.43749999999999988898e-01  5.68749999999999977796e-01  4.26238547010326707110e-01  3.11095725429866298839e-05 9
1.49999999999999994449e-01  5.68749999999999977796e-01  4.43410480741830870244e-01  3.19498475708224205505e-05 9
1.56250000000000000000e-01  5.68749999999999977796e-01  4.60411471292510587894e-01  3.27778051184002272578e-05 9
1.62500000000000005551e-01  5.68749999999999977796e-01  4.77234964456521748577e-01  3.35931263502620147676e-05 9
1.68750000000000011102e-01  5.68749999999999977796e-01  4.93874474457126566573e-01  3.43954968179960296482e-05 9
1.74999999999999988898e-01  5.68749999999999977796e-01  5.10323586446681964901e-01  3.51846069827077556624e-05 9
1.81249999999999994449e-01  5.68749999999999977796e-01  5.26575958979006997218e-01  3.59601530132147573227e-05 9
1.87500000000000000000e-01  5.68749999999999977796e-01  5.42625326455404288772e-01  3.67218356299714443480e-05 9
1.93750000000000005551e-01  5.68749999999999977796e-01  5.58465501539167963330e-01  3.74693612197329883884e-05 9
2.00000000000000011102e-01  5.68749999999999977796e-01  5.74090377541083052293e-01  3.82024417858728426722e-05 9
2.06249999999999988898e-01  5.68749999999999977796e-01  5.89493930774204533130e-01  3.89207945250547027172e-05 9
2.12499999999999994449e-01  5.68749999999999977796e-01  6.04670222875531071516e-01  3.96241425084653542399e-05 9
2.18750000000000000000e-01  5.68749999999999977796e-01  6.19613403095461090508e-01  4.03122146848122753227e-05 9
2.25000000000000005551e-01  5.68749999999999977796e-01  6.34317710553586766586e-01  4.09847457656375979695e-05 9
2.31250000000000011102e-01  5.68749999999999977796e-01  6.48777476459705404466e-01  4.16414762458572340620e-05 9
2.37499999999999988898e-01  5.68749999999999977796e-01  6.62987126298228646171e-01  4.22821535204231935268e-05 9
2.43749999999999994449e-01  5.68749999999999977796e-01  6.76941181979390238510e-01  4.29065298568342967656e-05 9
2.50000000000000000000e-01  5.68749999999999977796e-01  6.90634263948555982005e-01  4.35143650874270093709e-05 9
2.56249999999999977796e-01  5.68749999999999977796e-01  7.04061093262070558652e-01  4.41054247766192730751e-05 9
2.62500000000000011102e-01  5.68749999999999977796e-01  7.17216493621925299529e-01  4.46794807767991741798e-05 9
2.68749999999999988898e-01  5.68749999999999977796e-01  7.30095393370532530497e-01  4.52363121026255754487e-05 9
2.75000000000000022204e-01  5.68749999999999977796e-01  7.42692827446884251685e-01  4.57757040791539893121e-05 9
2.81250000000000000000e-01  5.68749999999999977796e-01  7.55003939300669890677e-01  4.62974484310985090474e-05 9
2.87499999999999977796e-01  5.68749999999999977796e-01  7.67023982763807676832e-01  4.68013441257131290740e-05 9
2.93750000000000011102e-01  5.68749999999999977796e-01  7.78748323880094739380e-01  4.72871975377708864130e-05 9
2.99999999999999988898e-01  5.68749999999999977796e-01  7.90172442693951704307e-01  4.77548202572064539595e-05 9
3.06250000000000022204e-01  5.68749999999999977796e-01  8.01291934989003529211e-01  4.82040331108990471876e-05 9
3.12500000000000000000e-01  5.68749999999999977796e-01  8.12102513990248242592e-01  4.86346619714694838876e-05 9
3.18749999999999977796e-01  5.68749999999999977796e-01  8.22600012013197101624e-01  4.90465413186536025592e-05 9
3.25000000000000011102e-01  5.68749999999999977796e-01  8.32780382072329738996e-01  4.94395125686386549546e-05 9
3.31249999999999988898e-01  5.68749999999999977796e-01  8.42639699441706246930e-01  4.98134237132408230764e-05 9
3.37500000000000022204e-01  5.68749999999999977796e-01  8.52174163166747988818e-01  5.01681306548373839860e-05 9
3.43750000000000000000e-01  5.68749999999999977796e-01  8.61380097529509280996e-01  5.05034973298235101424e-05 9
3.49999999999999977796e-01  5.68749999999999977796e-01  8.70253953468025254203e-01  5.08193934730671870170e-05 9
3.56250000000000011102e-01  5.68749999999999977796e-01  8.78792309941355043179e-01  5.11156978558746644126e-05 9
3.62499999999999988898e-01  5.68749999999999977796e-01  8.86991875250199623970e-01  5.13922965901247863485e-05 9
3.68750000000000022204e-01  5.68749999999999977796e-01  8.94849488307022045142e-01  5.16490820670068018217e-05 9
3.75000000000000000000e-01  5.68749999999999977796e-01  9.02362119851810695614e-01  5.18859558920059527054e-05 9
3.81249999999999977796e-01  5.68749999999999977796e-01  9.09526873621642639733e-01  5.21028271988077662513e-05 9
3.87500000000000011102e-01  5.68749999999999977796e-01  9.16340987468652667935e-01  5.22996112792828427018e-05 9
3.93749999999999988898e-01  5.68749999999999977796e-01  9.22801834421369204797e-01  5.24762331400863146769e-05 9
4.00000000000000022204e-01  5.68749999999999977796e-01  9.28906923700398734489e-01  5.26326245956498794953e-05 9
4.06250000000000000000e-01  5.68749999999999977796e-01  9.34653901678162868372e-01  5.27687247997565833657e-05 9
4.12499999999999977796e-01  5.68749999999999977796e-01  9.40040552784794480878e-01  5.28844817410112355560e-05 9
4.18750000000000011102e-01  5.68749999999999977796e-01  9.45064800363525803206e-01  5.29798510195966798619e-05 9
4.24999999999999988898e-01  5.68749999999999977796e-01  9.49724707471733431419e-01  5.30547954097349006020e-05 9
4.31250000000000022204e-01  5.68749999999999977796e-01  9.54018477626799810132e-01  5.31092857409820595649e-05 9
4.37500000000000000000e-01  5.68749999999999977796e-01  9.57944455497609204109e-01  5.31433019912430637532e-05 9
4.43749999999999977796e-01  5.68749999999999977796e-01  9.61501127545874578750e-01  5.31568301302964840716e-05 9
4.50000000000000011102e-01  5.68749999999999977796e-01  9.64687122606028624183e-01  5.31498657312390321295e-05 9
4.56249999999999988898e-01  5.68749999999999977796e-01  9.67501212417476330607e-01  5.31224103298422178909e-05 9
4.62500000000000022204e-01  5.68749999999999977796e-01  9.69942312093330705203e-01  5.30744762068380282471e-05 9
4.68750000000000000000e-01  5.68749999999999977796e-01  9.72009480545239279436e-01  5.30060798006326550080e-05 9
4.74999999999999977796e-01  5.68749999999999977796e-01  9.73701920838642598355e-01  5.29172492504947911129e-05 9
4.81250000000000011102e-01  5.68749999999999977796e-01  9.75018980506434984612e-01  5.28080179575951547122e-05 9
4.87499999999999988898e-01  5.68749999999999977796e-01  9.75960151797341635138e-01  5.26784277341540985162e-05 9
4.93750000000000022204e-01  5.68749999999999977796e-01  9.76525071870781080641e-01  5.25285296725241934723e-05 9
5.00000000000000000000e-01  5.68749999999999977796e-01  9.76713522940074851952e-01  5.23583807976457649147e-05 9
5.06249999999999977796e-01  5.68749999999999977796e-01  9.76525432354328870588e-01  5.21680461247342464048e-05 9
5.12499999999999955591e-01  5.68749999999999977796e-01  9.75960872625050712692e-01  5.19576000250765446253e-05 9
5.18750000000000044409e-01  5.68749999999999977796e-01  9.75020061400505233529e-01  5.17271238873462380070e-05 9
5.25000000000000022204e-01  5.68749999999999977796e-01  9.73703361383323917622e-01  5.14767045691755242842e-05 9
5.31250000000000000000e-01  5.68749999999999977796e-01  9.72011280183682324640e-01  5.12064413576984733822e-05 9
5.37499999999999977796e-01  5.68749999999999977796e-01  9.69944470132634406490e-01  5.09164369031367414209e-05 9
5.43749999999999955591e-01  5.68749999999999977796e-01  9.67503728025893572351e-01  5.06068019126004742247e-05 9
5.50000000000000044409e-01  5.68749999999999977796e-01  9.64689994813117457362e-01  5.02776586422948312816e-05 9
5.56250000000000022204e-01  5.68749999999999977796e-01  9.61504355244339192765e-01  4.99291316656824690767e-05 9
5.62500000000000000000e-01  5.68749999999999977796e-01  9.57948037443860700435e-01  4.95613557397467374699e-05 9
5.68749999999999977796e-01  5.68749999999999977796e-01  9.54022412438875644369e-01  4.91744736651478220324e-05 9
5.74999999999999955591e-01  5.68749999999999977796e-01  9.49728993633849216671e-01  4.87686332940606703801e-05 9
5.81250000000000044409e-01  5.68749999999999977796e-01  9.45069436222583103557e-01  4.83439919622963287793e-05 9
5.87500000000000022204e-01  5.68749999999999977796e-01  9.40045536553597904650e-01  4.79007129375874640687e-05 9
5.93750000000000000000e-01  5.68749999999999977796e-01  9.34659231435133963650e-01  4.74389678286613047931e-05 9
5.99999999999999977796e-01  5.68749999999999977796e-01  9.28912597391502226074e-01  4.69589334922693169005e-05 9
6.06249999999999955591e-01  5.68749999999999977796e-01  9.22807849858861550807e-01  4.64607956478513273169e-05 9
6.12500000000000044409e-01  5.68749999999999977796e-01  9.16347342333186709595e-01  4.59447467451301605479e-05 9
6.18750000000000022204e-01  5.68749999999999977796e-01  9.09533565463825910413e-01  4.54109850156481087424e-05 9
6.25000000000000000000e-01  5.68749999999999977796e-01  9.02369146091722140746e-01  4.48597159805608214356e-05 9
6.31249999999999977796e-01  5.68749999999999977796e-01  8.94856846235555614122e-01  4.42911535334378214657e-05 9
6.37499999999999955591e-01  5.68749999999999977796e-01  8.86999562031454358291e-01  4.37055153356125103414e-05 9