Titile = 'Poisson'  
VARIABLES = X, Y, U, Error, Rank 
zone N= 966, E = 1600
DATAPACKING=POINT, ZONETYPE=FETRIANGLE
0.00000000000000000000e+00  3.43750000000000000000e-01  0.00000000000000000000e+00  0.00000000000000000000e+00 11
6.25000000000000034694e-03  3.43750000000000000000e-01  1.73246603749630002922e-02  9.28949625892544483818e-06 11
1.25000000000000006939e-02  3.43750000000000000000e-01  3.46423877240915056852e-02  1.83213717702482292715e-05 11
1.87499999999999993061e-02  3.43750000000000000000e-01  5.19367884099993723512e-02  1.73748207389912145970e-05 11
2.50000000000000013878e-02  3.43750000000000000000e-01  6.92111664753102678871e-02  1.64215713806398211361e-05 11
3.12500000000000000000e-02  3.43750000000000000000e-01  8.64588623184509436070e-02  1.54619911947179167200e-05 11
3.74999999999999986122e-02  3.43750000000000000000e-01  1.03673226624349121283e-01  1.44964501178207472165e-05 11
4.37499999999999972244e-02  3.43750000000000000000e-01  1.20847622927876194310e-01  1.35253203861485093995e-05 11
5.00000000000000027756e-02  3.43750000000000000000e-01  1.37975430172315366439e-01  1.25489763764252693079e-05 11
5.62500000000000013878e-02  3.43750000000000000000e-01  1.55050045261953151066e-01  1.15677945098924261913e-05 11
6.25000000000000000000e-02  3.43750000000000000000e-01  1.72064885607621759211e-01  1.05821530302363520093e-05 11
6.87500000000000055511e-02  3.43750000000000000000e-01  1.89013391664481084087e-01  9.59243192638625785662e-06 11
7.49999999999999972244e-02  3.43750000000000000000e-01  2.05889029460833372642e-01  8.59901277153185539248e-06 11
8.12500000000000027756e-02  3.43750000000000000000e-01  2.22685293117029170507e-01  7.60227851104300356155e-06 11
8.74999999999999944489e-02  3.43750000000000000000e-01  2.39395707353747988488e-01  6.60261345544754796322e-06 11
9.37500000000000000000e-02  3.43750000000000000000e-01  2.56013829988168739593e-01  5.60040295916053310066e-06 11
1.00000000000000005551e-01  3.43750000000000000000e-01  2.72533254417650805390e-01  4.59603336872005385771e-06 11
1.06249999999999997224e-01  3.43750000000000000000e-01  2.88947612089680339054e-01  3.58989195303749397681e-06 11
1.12500000000000002776e-01  3.43750000000000000000e-01  3.05250574956880960098e-01  2.58236656663912711451e-06 11
1.18749999999999994449e-01  3.43750000000000000000e-01  3.21435857916712919291e-01  1.57384561633167052719e-06 11
1.25000000000000000000e-01  3.43750000000000000000e-01  3.37497221234507482901e-01  5.64717919315782523881e-07 11
1.31250000000000005551e-01  3.43750000000000000000e-01  3.53428472948967176137e-01  4.44627482776294158384e-07 11
1.37500000000000011102e-01  3.43750000000000000000e-01  3.69223471259278235301e-01  1.45380148081075688538e-06 11
1.43749999999999988898e-01  3.43750000000000000000e-01  3.84876126892933045909e-01  2.46241500628796572414e-06 11
1.49999999999999994449e-01  3.43750000000000000000e-01  4.00380405453213461531e-01  3.47007922912867527998e-06 11
1.56250000000000000000e-01  3.43750000000000000000e-01  4.15730329745622795290e-01  4.47640564976703458910e-06 11
1.62500000000000005551e-01  3.43750000000000000000e-01  4.30919982082130836876e-01  5.48100632652426256186e-06 11
1.68750000000000011102e-01  3.43750000000000000000e-01  4.45943506562571256868e-01  6.48349400905745554269e-06 11
1.74999999999999988898e-01  3.43750000000000000000e-01  4.60795111332333473531e-01  7.48348215684480067011e-06 11
1.81249999999999994449e-01  3.43750000000000000000e-01  4.75469070815065508739e-01  8.48058525543260444124e-06 11
1.87500000000000000000e-01  3.43750000000000000000e-01  4.89959727919971332888e-01  9.47441898641043778184e-06 11
1.93750000000000005551e-01  3.43750000000000000000e-01  5.04261496223017413598e-01  1.04646000852470777431e-05 11
2.00000000000000011102e-01  3.43750000000000000000e-01  5.18368862120135331928e-01  1.14507469594071764618e-05 11
2.06249999999999988898e-01  3.43750000000000000000e-01  5.32276386953350666431e-01  1.24324793053798288156e-05 11
2.12499999999999994449e-01  3.43750000000000000000e-01  5.45978709107067694539e-01  1.34094186774458279388e-05 11
2.18750000000000000000e-01  3.43750000000000000000e-01  5.59470546075189534285e-01  1.43811885179312426430e-05 11
2.25000000000000005551e-01  3.43750000000000000000e-01  5.72746696497896112810e-01  1.53474140309750595179e-05 11
2.31250000000000011102e-01  3.43750000000000000000e-01  5.85802042166299830050e-01  1.63077228949592978324e-05 11
2.37499999999999988898e-01  3.43750000000000000000e-01  5.98631549996117562351e-01  1.72617449003542589026e-05 11
2.43749999999999994449e-01  3.43750000000000000000e-01  6.11230273968114135030e-01  1.82091119996785621993e-05 11
2.50000000000000000000e-01  3.43750000000000000000e-01  6.23593357033993100913e-01  1.91494593424490489042e-05 11
2.56249999999999977796e-01  3.43750000000000000000e-01  6.35716032990299884098e-01  2.00824239973140805660e-05 11
2.62500000000000011102e-01  3.43750000000000000000e-01  6.47593628314294122994e-01  2.10076466824471452810e-05 11
2.68749999999999988898e-01  3.43750000000000000000e-01  6.59221563967199886136e-01  2.19247703847624819673e-05 11
2.75000000000000022204e-01  3.43750000000000000000e-01  6.70595357158343619020e-01  2.28334416674247364654e-05 11
2.81250000000000000000e-01  3.43750000000000000000e-01  6.81710623073813692940e-01  2.37333103463299721625e-05 11
2.87499999999999977796e-01  3.43750000000000000000e-01  6.92563076567275781592e-01  2.46240292404165117546e-05 11
2.93750000000000011102e-01  3.43750000000000000000e-01  7.03148533811020937101e-01  2.55052552619039474280e-05 11
2.99999999999999988898e-01  3.43750000000000000000e-01  7.13462913910139051588e-01  2.63766483206140378570e-05 11
3.06250000000000022204e-01  3.43750000000000000000e-01  7.23502240474311775209e-01  2.72378729248012874109e-05 11
3.12500000000000000000e-01  3.43750000000000000000e-01  7.33262643152515436462e-01  2.80885965817656568788e-05 11
3.18749999999999977796e-01  3.43750000000000000000e-01  7.42740359123403859343e-01  2.89284916373810929713e-05 11
3.25000000000000011102e-01  3.43750000000000000000e-01  7.51931734547104158040e-01  2.97572342459195837705e-05 11
3.31249999999999988898e-01  3.43750000000000000000e-01  7.60833225973589044600e-01  3.05745047467498309857e-05 11
3.37500000000000022204e-01  3.43750000000000000000e-01  7.69441401708144678828e-01  3.13799883877585727987e-05 11
3.43750000000000000000e-01  3.43750000000000000000e-01  7.77752943135477936565e-01  3.21733743230412372327e-05 11
3.49999999999999977796e-01  3.43750000000000000000e-01  7.85764645997991340032e-01  3.29543568470258563252e-05 11
3.56250000000000011102e-01  3.43750000000000000000e-01  7.93473421631804121112e-01  3.37226347938424098061e-05 11
3.62499999999999988898e-01  3.43750000000000000000e-01  8.00876298157025656721e-01  3.44779121178584446739e-05 11
3.68750000000000022204e-01  3.43750000000000000000e-01  8.07970421624103041225e-01  3.52198973778694579551e-05 11
3.75000000000000000000e-01  3.43750000000000000000e-01  8.14753057113015932700e-01  3.59483049051645409122e-05 11
3.81249999999999977796e-01  3.43750000000000000000e-01  8.21221589788919348329e-01  3.66628536354607348358e-05 11
3.87500000000000011102e-01  3.43750000000000000000e-01  8.27373525909403717549e-01  3.73632680257252047795e-05 11
3.93749999999999988898e-01  3.43750000000000000000e-01  8.33206493785950796926e-01  3.80492780888141979290e-05 11
4.00000000000000022204e-01  3.43750000000000000000e-01  8.38718244697972514778e-01  3.87206197911549310220e-05 11
4.06250000000000000000e-01  3.43750000000000000000e-01  8.43906653761334002439e-01  3.93770335549437078271e-05 11
4.12499999999999977796e-01  3.43750000000000000000e-01  8.48769720745033651177e-01  4.00182668618409564942e-05 11
4.18750000000000011102e-01  3.43750000000000000000e-01  8.53305570844140603981e-01  4.06440725403411917682e-05 11
4.24999999999999988898e-01  3.43750000000000000000e-01  8.57512455402402506977e-01  4.12542090256762250533e-05 11
4.31250000000000022204e-01  3.43750000000000000000e-01  8.61388752585732997424e-01  4.18484411061070815663e-05 11
4.37500000000000000000e-01  3.43750000000000000000e-01  8.64932968007373847996e-01  4.24265400990053720420e-05 11
4.43749999999999977796e-01  3.43750000000000000000e-01  8.68143735305350938702e-01  4.29882825981886540490e-05 11
4.50000000000000011102e-01  3.43750000000000000000e-01  8.71019816667379154218e-01  4.35334524133690337067e-05 11
4.56249999999999988898e-01  3.43750000000000000000e-01  8.73560103309682700612e-01  4.40618390329383657900e-05 11
4.62500000000000022204e-01  3.43750000000000000000e-01  8.75763615902802938784e-01  4.45732393555831052367e-05 11
4.68750000000000000000e-01  3.43750000000000000000e-01  8.77629504951301653293e-01  4.50674556141672510989e-05 11
4.74999999999999977796e-01  3.43750000000000000000e-01  8.79157051119244692394e-01  4.55442974663933242141e-05 11
4.81250000000000011102e-01  3.43750000000000000000e-01  8.80345665508237895658e-01  4.60035813487635891761e-05 11
4.87499999999999988898e-01  3.43750000000000000000e-01  8.81194889885257848228e-01  4.64451297487178393908e-05 11
4.93750000000000022204e-01  3.43750000000000000000e-01  8.81704396857745265059e-01  4.68687728371053324850e-05 11
5.00000000000000000000e-01  3.43750000000000000000e-01  8.81873990001523666571e-01  4.72743468312719627988e-05 11
5.06249999999999977796e-01  3.43750000000000000000e-01  8.81703603934467006198e-01  4.76616961153641938154e-05 11
5.12499999999999955591e-01  3.43750000000000000000e-01  8.81193304344430994313e-01  4.80306705755717544548e-05 11
5.18750000000000044409e-01  3.43750000000000000000e-01  8.80343287961149245646e-01  4.83811284374136008068e-05 11
5.25000000000000022204e-01  3.43750000000000000000e-01  8.79153882482494708484e-01  4.87129342163772349750e-05 11
5.31250000000000000000e-01  3.43750000000000000000e-01  8.77625546446275994761e-01  4.90259606399368053076e-05 11
5.37499999999999977796e-01  3.43750000000000000000e-01  8.75758869055845545759e-01  4.93200863129761302162e-05 11
5.43749999999999955591e-01  3.43750000000000000000e-01  8.73554569950458659200e-01  4.95951982569797777956e-05 11
5.50000000000000044409e-01  3.43750000000000000000e-01  8.71013498929751217581e-01  4.98511900411946484724e-05 11
5.56250000000000022204e-01  3.43750000000000000000e-01  8.68136635624136565603e-01  5.00879638125617532296e-05 11
5.62500000000000000000e-01  3.43750000000000000000e-01  8.64925089120307077906e-01  5.03054271657754625835e-05 11
5.68749999999999977796e-01  3.43750000000000000000e-01  8.61380097529512833709e-01  5.05034973262707964636e-05 11
5.74999999999999955591e-01  3.43750000000000000000e-01  8.57503027514609605930e-01  5.06820968186882936379e-05 11
5.81250000000000044409e-01  3.43750000000000000000e-01  8.53295373758645392392e-01  5.08411580355527803476e-05 11
5.87500000000000022204e-01  3.43750000000000000000e-01  8.48758758393406975706e-01  5.09806184885164270781e-05 11
5.93750000000000000000e-01  3.43750000000000000000e-01  8.43894930369456175434e-01  5.11004254327707130301e-05 11
5.99999999999999977796e-01  3.43750000000000000000e-01  8.38705764786060070648e-01  5.12005317037100837751e-05 11
6.06249999999999955591e-01  3.43750000000000000000e-01  8.33193262164508063883e-01  5.12808995316582638679e-05 11
6.12500000000000044409e-01  3.43750000000000000000e-01  8.27359547680039941753e-01  5.13414973893899784230e-05 11
6.18750000000000022204e-01  3.43750000000000000000e-01  8.21206870340221883886e-01  5.13823023330362005368e-05 11
6.25000000000000000000e-01  3.43750000000000000000e-01  8.14737602119602777329e-01  5.14032983183199121413e-05 11
6.31249999999999977796e-01  3.43750000000000000000e-01  8.07954237044308798410e-01  5.14044771721122728536e-05 11
6.37499999999999955591e-01  3.43750000000000000000e-01  8.00859390230293732849e-01  5.13858388500043616887e-05 11
6.43750000000000044409e-01  3.43750000000000000000e-01  7.93455796876341601376e-01  5.13473902562511241854e-05 11
6.50000000000000022204e-01  3.43750000000000000000e-01  7.85746311208522674185e-01  5.12891463158027249847e-05 11
6.56250000000000000000e-01  3.43750000000000000000e-01  7.77733905380585177625e-01  5.12111292159111997080e-05 11
6.62499999999999977796e-01  3.43750000000000000000e-01  7.69421668326792040915e-01  5.11133697406185305567e-05 11
6.68749999999999955591e-01  3.43750000000000000000e-01  7.60812804574007017777e-01  5.09959043288876756606e-05 11
6.75000000000000044409e-01  3.43750000000000000000e-01  7.51910633001493522443e-01  5.08587798566662030453e-05 11
6.81250000000000022204e-01  3.43750000000000000000e-01  7.42718585567379685486e-01  5.07020476616659721003e-05 11
6.87500000000000000000e-01  3.43750000000000000000e-01  7.33240205979750814258e-01  5.05257693466099055968e-05 11
6.93749999999999977796e-01  3.43750000000000000000e-01  7.23479148335153032789e-01  5.03300120835437070355e-05 11
6.99999999999999955591e-01  3.43750000000000000000e-01  7.13439175706612638272e-01  5.01148518470273529601e-05 11
7.06250000000000044409e-01  3.43750000000000000000e-01  7.03124158695069167990e-01  4.98803712136730581506e-05 11
7.12500000000000022204e-01  3.43750000000000000000e-01  6.92538073935721310015e-01  4.96266607948880889012e-05 11
7.18750000000000000000e-01  3.43750000000000000000e-01  6.81685002565723952017e-01  4.93538184361819176615e-05 11
7.24999999999999977796e-01  3.43750000000000000000e-01  6.70569128650737589226e-01  4.90619492734545303847e-05 11
7.31249999999999955591e-01  3.43750000000000000000e-01  6.59194737572130429193e-01  4.87511654545524919513e-05 11
7.37500000000000044409e-01  3.43750000000000000000e-01  6.47566214373170856433e-01  4.84215878056026838294e-05 11
7.43750000000000022204e-01  3.43750000000000000000e-01  6.35688042072440229191e-01  4.80733418571910320338e-05 11
7.50000000000000000000e-01  3.43750000000000000000e-01  6.23564799930048985210e-01  4.77065632865647515359e-05 11
7.56249999999999977796e-01  3.43750000000000000000e-01  6.11201161687092486829e-01  4.73213930213267630620e-05 11
7.62499999999999955591e-01  3.43750000000000000000e-01  5.98601893761981918018e-01  4.69179790362206361465e-05 11
7.68750000000000044409e-01  3.43750000000000000000e-01  5.85771853411682696944e-01  4.64964775118703599333e-05 11
7.75000000000000022204e-01  3.43750000000000000000e-01  5.72715986861248915751e-01  4.60570506782831401438e-05 11
7.81250000000000000000e-01  3.43750000000000000000e-01  5.59439327395714114388e-01  4.55998679933511397167e-05 11
7.87499999999999977796e-01  3.43750000000000000000e-01  5.45946993420071469139e-01  4.51251056738932732060e-05 11
7.93749999999999955591e-01  3.43750000000000000000e-01  5.32244186486066972464e-01  4.46329465891848187198e-05 11
8.00000000000000044409e-01  3.43750000000000000000e-01  5.18336189286051629566e-01  4.41235810432205610709e-05 11
8.06250000000000022204e-01  3.43750000000000000000e-01  5.04228363618533403923e-01  4.35972045692567533592e-05 11
8.12500000000000000000e-01  3.43750000000000000000e-01  4.89926148317884835315e-01  4.30540210729080108365e-05 11
8.18749999999999977796e-01  3.43750000000000000000e-01  4.75435057161505025825e-01  4.24942388160820527787e-05 11
8.24999999999999955591e-01  3.43750000000000000000e-01  4.60760676739571772842e-01  4.19180749186565115849e-05 11
8.31250000000000044409e-01  3.43750000000000000000e-01  4.45908664306487734219e-01  4.13257500925801046776e-05 11
8.37500000000000022204e-01  3.43750000000000000000e-01  4.30884745594666052071e-01  4.07174937912535561679e-05 11
8.43750000000000000000e-01  3.43750000000000000000e-01  4.15694712611002270553e-01  4.00935402705138166368e-05 11
8.49999999999999977796e-01  3.43750000000000000000e-01  4.00344421402943462240e-01  3.94541294991834767814e-05 11
8.56249999999999955591e-01  3.43750000000000000000e-01  3.84839789799259757164e-01  3.87995086799652888487e-05 11
8.62500000000000044409e-01  3.43750000000000000000e-01  3.69186795130783507179e-01  3.81299299754278564478e-05 11
8.68750000000000022204e-01  3.43750000000000000000e-01  3.53391471925178390912e-01  3.74456512717835643400e-05 11
8.75000000000000000000e-01  3.43750000000000000000e-01  3.37459909579991002015e-01  3.67469365972761252692e-05 11
8.81249999999999977796e-01  3.43750000000000000000e-01  3.21398250015668685009e-01  3.60340554279026115125e-05 11
8.87499999999999955591e-01  3.43750000000000000000e-01  3.05212685308155984298e-01  3.53072821586142282513e-05 11
8.93750000000000044409e-01  3.43750000000000000000e-01  2.88909455300074724526e-01  3.45668976524104998305e-05 11
9.00000000000000022204e-01  3.43750000000000000000e-01  2.72494845197742308063e-01  3.38131865398882958118e-05 11
9.06250000000000000000e-01  3.43750000000000000000e-01  2.55975183145187468181e-01  3.30464400221663900936e-05 11
9.12499999999999977796e-01  3.43750000000000000000e-01  2.39356837786766335485e-01  3.22669535265107665367e-05 11
9.18749999999999955591e-01  3.43750000000000000000e-01  2.22646215811199282841e-01  3.14750273190389506794e-05 11
9.25000000000000044409e-01  3.43750000000000000000e-01  2.05849759481086108659e-01  3.06709669758431502373e-05 11
9.31250000000000022204e-01  3.43750000000000000000e-01  1.88973944150061995417e-01  2.98550824926746560806e-05 11
9.37500000000000000000e-01  3.43750000000000000000e-01  1.72025275766442886649e-01  2.90276881489692772931e-05 11
9.43749999999999977796e-01  3.43750000000000000000e-01  1.55010288364266141103e-01  2.81891031773118250214e-05 11
9.49999999999999955591e-01  3.43750000000000000000e-01  1.37935541545235795802e-01  2.73396507032286351091e-05 11
9.56250000000000044409e-01  3.43750000000000000000e-01  1.20807617949129128543e-01  2.64796583609450131291e-05 11
9.62500000000000022204e-01  3.43750000000000000000e-01  1.03633120716728976962e-01  2.56094575022264292485e-05 11
9.68750000000000000000e-01  3.43750000000000000000e-01  8.64186709434400929242e-02  2.47293838163270551789e-05 11
9.74999999999999977796e-01  3.43750000000000000000e-01  6.91709051275426478611e-02  2.38397763870912271500e-05 11
9.81249999999999955591e-01  3.43750000000000000000e-01  5.18964726109091278872e-02  2.29409783516557053140e-05 11
9.87500000000000044409e-01  3.43750000000000000000e-01  3.46020330162486872139e-02  2.20333360724800364494e-05 11
9.93750000000000022204e-01  3.43750000000000000000e-01  1.73042250424733159986e-02  1.11458362309635461429e-05 11
1.00000000000000000000e+00  3.43750000000000000000e-01  0.00000000000000000000e+00  1.08004205348419967205e-16 11
0.00000000000000000000e+00  3.49999999999999977796e-01  0.00000000000000000000e+00  0.00000000000000000000e+00 11
6.25000000000000034694e-03  3.49999999999999977796e-01  1.75026507254560682869e-02  8.90264912828397925182e-06 11
1.25000000000000006939e-02  3.49999999999999977796e-01  3.49983091867714160572e-02  1.75572070079885178551e-05 11
1.87499999999999993061e-02  3.49999999999999977796e-01  5.24708719611038099107e-02  1.66018236819956421790e-05 11
2.50000000000000013878e-02  3.49999999999999977796e-01  6.99232062154686584421e-02  1.56400400391221161556e-05 11
3.12500000000000000000e-02  3.49999999999999977796e-01  8.73485837427873668126e-02  1.46722268620919082949e-05 11
3.74999999999999986122e-02  3.49999999999999977796e-01  1.04740286728316728260e-01  1.36987572621066755474e-05 11
4.37499999999999972244e-02  3.49999999999999977796e-01  1.22091610339486483783e-01  1.27200065271337869888e-05 11
5.00000000000000027756e-02  3.49999999999999977796e-01  1.39395865310760619371e-01  1.17363519977764507729e-05 11
5.62500000000000013878e-02  3.49999999999999977796e-01  1.56646380522421913017e-01  1.07481728673919363359e-05 11
6.25000000000000000000e-02  3.49999999999999977796e-01  1.73836505572503186023e-01  9.75585012336077639361e-06 11
6.87500000000000055511e-02  3.49999999999999977796e-01  1.90959613340552475380e-01  8.75976630870800576645e-06 11
7.49999999999999972244e-02  3.49999999999999977796e-01  2.08009102542573376393e-01  7.76030543428452013188e-06 11
8.12500000000000027756e-02  3.49999999999999977796e-01  2.24978400275941098352e-01  6.75785282563956535284e-06 11
8.74999999999999944489e-02  3.49999999999999977796e-01  2.41860964553318180670e-01  5.75279491146774013544e-06 11
9.37500000000000000000e-02  3.49999999999999977796e-01  2.58650286824846364908e-01  4.74551920576216090808e-06 11
1.00000000000000005551e-01  3.49999999999999977796e-01  2.75339894487178993288e-01  3.73641402073854322907e-06 11
1.06249999999999997224e-01  3.49999999999999977796e-01  2.91923353378837402428e-01  2.72586836208565941320e-06 11
1.12500000000000002776e-01  3.49999999999999977796e-01  3.08394270260752445534e-01  1.71427182854566595438e-06 11
1.18749999999999994449e-01  3.49999999999999977796e-01  3.24746295280935015626e-01  7.02014416986695977130e-07 11
1.25000000000000000000e-01  3.49999999999999977796e-01  3.40973124422448536919e-01  3.10513644463661364625e-07 11
1.31250000000000005551e-01  3.49999999999999977796e-01  3.57068501933786086600e-01  1.32292198784522696542e-06 11
1.37500000000000011102e-01  3.49999999999999977796e-01  3.73026222740515001064e-01  2.33482032319098919970e-06 11
1.43749999999999988898e-01  3.49999999999999977796e-01  3.88840134837505846388e-01  3.34581853350668367852e-06 11
1.49999999999999994449e-01  3.49999999999999977796e-01  4.04504141660604943365e-01  4.35552686867124450032e-06 11
1.56250000000000000000e-01  3.49999999999999977796e-01  4.20012204437001379631e-01  5.36355606955973840400e-06 11
1.62500000000000005551e-01  3.49999999999999977796e-01  4.35358344513262163211e-01  6.36951754467984798680e-06 11
1.68750000000000011102e-01  3.49999999999999977796e-01  4.50536645660356505072e-01  7.37302338121859079934e-06 11
1.74999999999999988898e-01  3.49999999999999977796e-01  4.65541256354115251526e-01  8.37368685324690886773e-06 11
1.81249999999999994449e-01  3.49999999999999977796e-01  4.80366392031598810064e-01  9.37112207732848645492e-06 11
1.87500000000000000000e-01  3.49999999999999977796e-01  4.95006337320785916312e-01  1.03649445313824806192e-05 11
1.93750000000000005551e-01  3.49999999999999977796e-01  5.09455448243973263445e-01  1.13547711881878399254e-05 11
2.00000000000000011102e-01  3.49999999999999977796e-01  5.23708154394070923843e-01  1.23402202284461637305e-05 11
2.06249999999999988898e-01  3.49999999999999977796e-01  5.37758961081317155006e-01  1.33209119708155299122e-05 11
2.12499999999999994449e-01  3.49999999999999977796e-01  5.51602451452391506770e-01  1.42964682131596632075e-05 11
2.18750000000000000000e-01  3.49999999999999977796e-01  5.65233288578232739852e-01  1.52665128605455890920e-05 11
2.25000000000000005551e-01  3.49999999999999977796e-01  5.78646217511454841187e-01  1.62306721411820120693e-05 11
2.31250000000000011102e-01  3.49999999999999977796e-01  5.91836067313007974100e-01  1.71885739727040132152e-05 11
2.37499999999999988898e-01  3.49999999999999977796e-01  6.04797753044337360606e-01  1.81398494417672750956e-05 11
2.43749999999999994449e-01  3.49999999999999977796e-01  6.17526277729063877153e-01  1.90841316062284604982e-05 11
2.50000000000000000000e-01  3.49999999999999977796e-01  6.30016734278676771019e-01  2.00210563736646918187e-05 11
2.56249999999999977796e-01  3.49999999999999977796e-01  6.42264307384098787068e-01  2.09502628523150491446e-05 11
2.62500000000000011102e-01  3.49999999999999977796e-01  6.54264275373201753538e-01  2.18713923683111488572e-05 11
2.68749999999999988898e-01  3.49999999999999977796e-01  6.66012012029475908292e-01  2.27840902287113067359e-05 11
2.75000000000000022204e-01  3.49999999999999977796e-01  6.77502988377049919499e-01  2.36880043332776679676e-05 11
2.81250000000000000000e-01  3.49999999999999977796e-01  6.88732774425806160146e-01  2.45827862005443265048e-05 11
2.87499999999999977796e-01  3.49999999999999977796e-01  6.99697040879290188542e-01  2.54680910389826209439e-05 11
2.93750000000000011102e-01  3.49999999999999977796e-01  7.10391560804340072011e-01  2.63435772767106612946e-05 11
2.99999999999999988898e-01  3.49999999999999977796e-01  7.20812211259528878848e-01  2.72089078133808115467e-05 11
3.06250000000000022204e-01  3.49999999999999977796e-01  7.30954974886266373169e-01  2.80637485210455395190e-05 11
3.12500000000000000000e-01  3.49999999999999977796e-01  7.40815941455513771174e-01  2.89077704267448609698e-05 11
3.18749999999999977796e-01  3.49999999999999977796e-01  7.50391309377561377403e-01  2.97406475291417393692e-05 11
3.25000000000000011102e-01  3.49999999999999977796e-01  7.59677387165273776404e-01  3.05620592645494681960e-05 11
3.31249999999999988898e-01  3.49999999999999977796e-01  7.68670594859133693433e-01  3.13716887242465602981e-05 11
3.37500000000000022204e-01  3.49999999999999977796e-01  7.77367465406498481251e-01  3.21692236640025441829e-05 11
3.43750000000000000000e-01  3.49999999999999977796e-01  7.85764645997991340032e-01  3.29543568470258563252e-05 11
3.49999999999999977796e-01  3.49999999999999977796e-01  7.93858899360784131538e-01  3.37267854523259913435e-05 11
3.56250000000000011102e-01  3.49999999999999977796e-01  8.01647105006007554273e-01  3.44862118105693227221e-05 11
3.62499999999999988898e-01  3.49999999999999977796e-01  8.09126260432250110632e-01  3.52323430282686089754e-05 11
3.68750000000000022204e-01  3.49999999999999977796e-01  8.16293482282503202185e-01  3.59648916774535365448e-05 11
3.75000000000000000000e-01  3.49999999999999977796e-01  8.23146007456914019507e-01  3.66835747417360025224e-05 11
3.81249999999999977796e-01  3.49999999999999977796e-01  8.29681194175569958205e-01  3.73881161691569374739e-05 11
3.87500000000000011102e-01  3.49999999999999977796e-01  8.35896523000824176464e-01  3.80782431097514972862e-05 11
3.93749999999999988898e-01  3.49999999999999977796e-01  8.41789597803778377738e-01  3.87536908280639025293e-05 11
4.00000000000000022204e-01  3.49999999999999977796e-01  8.47358146692957170387e-01  3.94141978853346230949e-05 11
4.06250000000000000000e-01  3.49999999999999977796e-01  8.52600022886410124912e-01  4.00595099950828981150e-05 11
4.12499999999999977796e-01  3.49999999999999977796e-01  8.57513205540799350324e-01  4.06893786585316163951e-05 11
4.18750000000000011102e-01  3.49999999999999977796e-01  8.62095800531432088221e-01  4.13035603024081154899e-05 11
4.24999999999999988898e-01  3.49999999999999977796e-01  8.66346041179577808222e-01  4.19018192758802143771e-05 11
4.31250000000000022204e-01  3.49999999999999977796e-01  8.70262288937834971314e-01  4.24839236633500760831e-05 11
4.37500000000000000000e-01  3.49999999999999977796e-01  8.73843034017017905590e-01  4.30496501780952556260e-05 11
4.43749999999999977796e-01  3.49999999999999977796e-01  8.77086895972384872344e-01  4.35987800729842334135e-05 11
4.50000000000000011102e-01  3.49999999999999977796e-01  8.79992624233312703552e-01  4.41311017377321590516e-05 11
4.56249999999999988898e-01  3.49999999999999977796e-01  8.82559098585942725101e-01  4.46464102530352846543e-05 11
4.62500000000000022204e-01  3.49999999999999977796e-01  8.84785329606233017508e-01  4.51445062815691855462e-05 11
4.68750000000000000000e-01  3.49999999999999977796e-01  8.86670459038749192437e-01  4.56251987956957094639e-05 11
4.74999999999999977796e-01  3.49999999999999977796e-01  8.88213760131229435046e-01  4.60883014600232954194e-05 11
4.81250000000000011102e-01  3.49999999999999977796e-01  8.89414637910923899788e-01  4.65336365399471318938e-05 11
4.87499999999999988898e-01  3.49999999999999977796e-01  8.90272629417157346232e-01  4.69610317818114353372e-05 11
4.93750000000000022204e-01  3.49999999999999977796e-01  8.90787403877554506693e-01  4.73703227336086385435e-05 11
5.00000000000000000000e-01  3.49999999999999977796e-01  8.90958762836678186403e-01  4.77613516896013834412e-05 11
5.06249999999999977796e-01  3.49999999999999977796e-01  8.90786640232929749494e-01  4.81339673583658367306e-05 11
5.12499999999999955591e-01  3.49999999999999977796e-01  8.90271102422080407024e-01  4.84880268587506435551e-05 11
5.18750000000000044409e-01  3.49999999999999977796e-01  8.89412348154429821534e-01  4.88233930340253863278e-05 11
5.25000000000000022204e-01  3.49999999999999977796e-01  8.88210708495557610398e-01  4.91399371318479438742e-05 11
5.31250000000000000000e-01  3.49999999999999977796e-01  8.86666646701112726170e-01  4.94375364322729993205e-05 11
5.37499999999999977796e-01  3.49999999999999977796e-01  8.84780758035420777929e-01  4.97160770938087637205e-05 11
5.43749999999999955591e-01  3.49999999999999977796e-01  8.82553769545353028469e-01  4.99754508427319166231e-05 11
5.50000000000000044409e-01  3.49999999999999977796e-01  8.79986539776597131990e-01  5.02155584531926990621e-05 11
5.56250000000000022204e-01  3.49999999999999977796e-01  8.77080058445643406806e-01  5.04363068144497717071e-05 11
5.62500000000000000000e-01  3.49999999999999977796e-01  8.73835446056175690899e-01  5.06376110203099472074e-05 11
5.68749999999999977796e-01  3.49999999999999977796e-01  8.70253953468028806917e-01  5.08193934695144733382e-05 11
5.74999999999999955591e-01  3.49999999999999977796e-01  8.66336961414684969540e-01  5.09815841688299187240e-05 11
5.81250000000000044409e-01  3.49999999999999977796e-01  8.62085979971447868841e-01  5.11241202866274946359e-05 11
5.87500000000000022204e-01  3.49999999999999977796e-01  8.57502647972164133705e-01  5.12469472937482350972e-05 11
5.93750000000000000000e-01  3.49999999999999977796e-01  8.52588732378927405264e-01  5.13500174778025453293e-05 11
5.99999999999999977796e-01  3.49999999999999977796e-01  8.47346127599235887651e-01  5.14332916067283818506e-05 11
6.06249999999999955591e-01  3.49999999999999977796e-01  8.41776854757886772163e-01  5.14967367197805003798e-05 11
6.12500000000000044409e-01  3.49999999999999977796e-01  8.35883060914639264283e-01  5.15403292945526558810e-05 11
6.18750000000000022204e-01  3.49999999999999977796e-01  8.29667018240125675455e-01  5.15640516135507098738e-05 11
6.25000000000000000000e-01  3.49999999999999977796e-01  8.23131123136160658404e-01  5.15678954950971046856e-05 11