Titile = 'Poisson'  
VARIABLES = X, Y, U, Error, Rank 
zone N= 1771, E = 3200
DATAPACKING=POINT, ZONETYPE=FETRIANGLE
0.00000000000000000000e+00  3.75000000000000000000e-01  0.00000000000000000000e+00  0.00000000000000000000e+00 6
6.25000000000000034694e-03  3.75000000000000000000e-01  1.81384958057483301752e-02  6.70806247320132609246e-07 6
1.25000000000000006939e-02  3.75000000000000000000e-01  3.62699865619195704891e-02  1.35366804798753292971e-06 6
1.87499999999999993061e-02  3.75000000000000000000e-01  5.43874825540657941270e-02  2.04800175847980048260e-06 6
2.50000000000000013878e-02  3.75000000000000000000e-01  7.24839994580616236997e-02  2.75322423805290927845e-06 6
3.12500000000000000000e-02  3.75000000000000000000e-01  9.05525610326656515969e-02  3.46875310199001862799e-06 6
3.74999999999999986122e-02  3.75000000000000000000e-01  1.08586201808967525162e-01  4.19400697282412693312e-06 6
4.37499999999999972244e-02  3.75000000000000000000e-01  1.26577969775680448938e-01  4.92840573285135974402e-06 6
5.00000000000000027756e-02  3.75000000000000000000e-01  1.44520929059247765780e-01  5.67137077395196698149e-06 6
5.62500000000000013878e-02  3.75000000000000000000e-01  1.62408162597727612209e-01  6.42232524714070329708e-06 6
6.25000000000000000000e-02  3.75000000000000000000e-01  1.80232774807432633013e-01  7.18069430433176947304e-06 6
6.87500000000000055511e-02  3.75000000000000000000e-01  1.97987894241286127572e-01  7.94590534278216686914e-06 6
7.49999999999999972244e-02  3.75000000000000000000e-01  2.15666676237876830946e-01  8.71738824428924807819e-06 6
8.12500000000000027756e-02  3.75000000000000000000e-01  2.33262305560194449505e-01  9.49457560722732907266e-06 6
8.74999999999999944489e-02  3.75000000000000000000e-01  2.50767999023019994009e-01  1.02769029781679677171e-05 6
9.37500000000000000000e-02  3.75000000000000000000e-01  2.68177008107969738759e-01  1.10638090726755677906e-05 6
1.00000000000000005551e-01  3.75000000000000000000e-01  2.85482621565169292221e-01  1.18547360000165191707e-05 6
1.06249999999999997224e-01  3.75000000000000000000e-01  3.02678168000575342766e-01  1.26491294709651924677e-05 6
1.12500000000000002776e-01  3.75000000000000000000e-01  3.19757018447929530769e-01  1.34464390070254680154e-05 6
1.18749999999999994449e-01  3.75000000000000000000e-01  3.36712588924359179643e-01  1.42461181446007500995e-05 6
1.25000000000000000000e-01  3.75000000000000000000e-01  3.53538342968651997378e-01  1.50476246217889908507e-05 6
1.31250000000000005551e-01  3.75000000000000000000e-01  3.70227794161198164868e-01  1.58504205753917659649e-05 6
1.37500000000000011102e-01  3.75000000000000000000e-01  3.86774508624657786804e-01  1.66539727193271147598e-05 6
1.43749999999999988898e-01  3.75000000000000000000e-01  4.03172107504375987208e-01  1.74577525168806424460e-05 6
1.49999999999999994449e-01  3.75000000000000000000e-01  4.19414269427586527961e-01  1.82612363513467990117e-05 6
1.56250000000000000000e-01  3.75000000000000000000e-01  4.35494732940462314641e-01  1.90639056864561062810e-05 6
1.62500000000000005551e-01  3.75000000000000000000e-01  4.51407298922066990698e-01  1.98652472242488720156e-05 6
1.68750000000000011102e-01  3.75000000000000000000e-01  4.67145832974287522621e-01  2.06647530500148057797e-05 6
1.74999999999999988898e-01  3.75000000000000000000e-01  4.82704267786814800179e-01  2.14619207742905437897e-05 6
1.81249999999999994449e-01  3.75000000000000000000e-01  4.98076605476266809358e-01  2.22562536671966348933e-05 6
1.87500000000000000000e-01  3.75000000000000000000e-01  5.13256919898541719149e-01  2.30472607949394614479e-05 6
1.93750000000000005551e-01  3.75000000000000000000e-01  5.28239358933537017649e-01  2.38344571316106978998e-05 6
2.00000000000000011102e-01  3.75000000000000000000e-01  5.43018146741310547831e-01  2.46173636883062485481e-05 6
2.06249999999999988898e-01  3.75000000000000000000e-01  5.57587585988864264941e-01  2.53955076106038291073e-05 6
2.12499999999999994449e-01  3.75000000000000000000e-01  5.71942060046637390514e-01  2.61684222983005199126e-05 6
2.18750000000000000000e-01  3.75000000000000000000e-01  5.86076035153912155984e-01  2.69356474965620762418e-05 6
2.25000000000000005551e-01  3.75000000000000000000e-01  5.99984062552261776524e-01  2.76967293958430005318e-05 6
2.31250000000000011102e-01  3.75000000000000000000e-01  6.13660780586237297740e-01  2.84512207201492728359e-05 6
2.37499999999999988898e-01  3.75000000000000000000e-01  6.27100916770476524142e-01  2.91986808105271222757e-05 6
2.43749999999999994449e-01  3.75000000000000000000e-01  6.40299289822435113706e-01  2.99386757076636200736e-05 6
2.50000000000000000000e-01  3.75000000000000000000e-01  6.53250811659956465149e-01  3.06707782317117150228e-05 6
2.56249999999999977796e-01  3.75000000000000000000e-01  6.65950489362925113213e-01  3.13945680470162358233e-05 6
2.62500000000000011102e-01  3.75000000000000000000e-01  6.78393427098219148341e-01  3.21096317369429229416e-05 6
2.68749999999999988898e-01  3.75000000000000000000e-01  6.90574828007242014216e-01  3.28155628679382971313e-05 6
2.75000000000000022204e-01  3.75000000000000000000e-01  7.02489996055312704293e-01  3.35119620376023163999e-05 6
2.81250000000000000000e-01  3.75000000000000000000e-01  7.14134337842155519915e-01  3.41984369477410510285e-05 6
2.87499999999999977796e-01  3.75000000000000000000e-01  7.25503364372850678699e-01  3.48746024503299167918e-05 6
2.93750000000000011102e-01  3.75000000000000000000e-01  7.36592692788522684921e-01  3.55400805994721125103e-05 6
2.99999999999999988898e-01  3.75000000000000000000e-01  7.47398048056123531779e-01  3.61945006892572251900e-05 6
3.06250000000000022204e-01  3.75000000000000000000e-01  7.57915264616621509042e-01  3.68374993149345186794e-05 6
3.12500000000000000000e-01  3.75000000000000000000e-01  7.68140287991020631608e-01  3.74687203956725056742e-05 6
3.18749999999999977796e-01  3.75000000000000000000e-01  7.78069176343523682959e-01  3.80878152281827198067e-05 6
3.25000000000000011102e-01  3.75000000000000000000e-01  7.87698102001292643770e-01  3.86944425126989344221e-05 6
3.31249999999999988898e-01  3.75000000000000000000e-01  7.97023352930188444532e-01  3.92882683858397641075e-05 6
3.37500000000000022204e-01  3.75000000000000000000e-01  8.06041334165927603195e-01  3.98689664524720654981e-05 6
3.43750000000000000000e-01  3.75000000000000000000e-01  8.14748569200100969390e-01  4.04362178201278510414e-05 6
3.49999999999999977796e-01  3.75000000000000000000e-01  8.23141701320546315124e-01  4.09897111094403854281e-05 6
3.56250000000000011102e-01  3.75000000000000000000e-01  8.31217494905505449587e-01  4.15291424934460806639e-05 6
3.62499999999999988898e-01  3.75000000000000000000e-01  8.38972836671126209751e-01  4.20542157060221910569e-05 6
3.68750000000000022204e-01  3.75000000000000000000e-01  8.46404736871790519537e-01  4.25646420598724262163e-05 6
3.75000000000000000000e-01  3.75000000000000000000e-01  8.53510330452791454725e-01  4.30601404822761324453e-05 6
3.81249999999999977796e-01  3.75000000000000000000e-01  8.60286878154997824986e-01  4.35404374938830329711e-05 6
3.87500000000000011102e-01  3.75000000000000000000e-01  8.66731767570955491387e-01  4.40052672487922791333e-05 6
3.93749999999999988898e-01  3.75000000000000000000e-01  8.72842514152118997828e-01  4.44543715372169856437e-05 6
4.00000000000000022204e-01  3.75000000000000000000e-01  8.78616762166799292189e-01  4.48874997801551600674e-05 6
4.06250000000000000000e-01  3.75000000000000000000e-01  8.84052285608415089335e-01  4.53044090519272302231e-05 6
4.12499999999999977796e-01  3.75000000000000000000e-01  8.89146989053769098987e-01  4.57048640665203009803e-05 6
4.18750000000000011102e-01  3.75000000000000000000e-01  8.93898908470953434957e-01  4.60886371886903845052e-05 6
4.24999999999999988898e-01  3.75000000000000000000e-01  8.98306211976617308146e-01  4.64555084251916383664e-05 6
4.31250000000000022204e-01  3.75000000000000000000e-01  9.02367200542278591335e-01  4.68052654241102317201e-05 6
4.37500000000000000000e-01  3.75000000000000000000e-01  9.06080308649424903678e-01  4.71377034628739366440e-05 6
4.43749999999999977796e-01  3.75000000000000000000e-01  9.09444104893135985002e-01  4.74526254434781691316e-05 6
4.50000000000000011102e-01  3.75000000000000000000e-01  9.12457292534004316131e-01  4.77498418801625135188e-05 6
4.56249999999999988898e-01  3.75000000000000000000e-01  9.15118709998140156259e-01  4.80291708856439569786e-05 6
4.62500000000000022204e-01  3.75000000000000000000e-01  9.17427331325073147639e-01  4.82904381490234513308e-05 6
4.68750000000000000000e-01  3.75000000000000000000e-01  9.19382266563358974132e-01  4.85334769229073259567e-05 6
4.74999999999999977796e-01  3.75000000000000000000e-01  9.20982762113763619993e-01  4.87581279970950021152e-05 6
4.81250000000000011102e-01  3.75000000000000000000e-01  9.22228201019871129951e-01  4.89642396785949784999e-05 6
4.87499999999999988898e-01  3.75000000000000000000e-01  9.23118103206020279572e-01  4.91516677624259656909e-05 6
4.93750000000000022204e-01  3.75000000000000000000e-01  9.23652125662469125622e-01  4.93202755005306414660e-05 6
5.00000000000000000000e-01  3.75000000000000000000e-01  9.23830062577718158501e-01  4.94699335685799823636e-05 6
5.06249999999999977796e-01  3.75000000000000000000e-01  9.23651845417934769245e-01  4.96005200348870189941e-05 6
5.12499999999999955591e-01  3.75000000000000000000e-01  9.23117542953460379351e-01  4.97119203223261862945e-05 6
5.18750000000000044409e-01  3.75000000000000000000e-01  9.22227361232392239820e-01  4.98040271574851090008e-05 6
5.25000000000000022204e-01  3.75000000000000000000e-01  9.20981643501213365077e-01  4.98767405473499181312e-05 6
5.31250000000000000000e-01  3.75000000000000000000e-01  9.19380870072571410034e-01  4.99299677105824457612e-05 6
5.37499999999999977796e-01  3.75000000000000000000e-01  9.17425658140182953559e-01  4.99636230392175306747e-05 6
5.43749999999999955591e-01  3.75000000000000000000e-01  9.15116761540980205858e-01  4.99776280455943577863e-05 6
5.50000000000000044409e-01  3.75000000000000000000e-01  9.12455070464576190048e-01  4.99719113081775745400e-05 6
5.56250000000000022204e-01  3.75000000000000000000e-01  9.09441611110173075971e-01  4.99464084063871993635e-05 6
5.62500000000000000000e-01  3.75000000000000000000e-01  9.06077545291021357876e-01  4.99010618664197380667e-05 6
5.68749999999999977796e-01  3.75000000000000000000e-01  9.02364169986609732099e-01  4.98358210929694678271e-05 6
5.74999999999999955591e-01  3.75000000000000000000e-01  8.98302916842743437442e-01  4.97506422991733643357e-05 6
5.81250000000000044409e-01  3.75000000000000000000e-01  8.93895351619699463086e-01  4.96454884426622555793e-05 6
5.87500000000000022204e-01  3.75000000000000000000e-01  8.89143173588691326792e-01  4.95203291442924964372e-05 6
5.93750000000000000000e-01  3.75000000000000000000e-01  8.84048214876852922472e-01  4.93751406140940929390e-05 6
5.99999999999999977796e-01  3.75000000000000000000e-01  8.78612439761009444972e-01  4.92099055701133991647e-05 6
6.06249999999999955591e-01  3.75000000000000000000e-01  8.72837943910496183442e-01  4.90246131601423940083e-05 6
6.12500000000000044409e-01  3.75000000000000000000e-01  8.66726953579342151990e-01  4.88192588620206535666e-05 6
6.18750000000000022204e-01  3.75000000000000000000e-01  8.60281824748078793874e-01  4.85938444130251667730e-05 6
6.25000000000000000000e-01  3.75000000000000000000e-01  8.53505042215575659981e-01  4.83483776980708768178e-05 6
6.31249999999999977796e-01  3.75000000000000000000e-01  8.46399218641180950407e-01  4.80828726694415564680e-05 6
6.37499999999999955591e-01  3.75000000000000000000e-01  8.38967093537597574660e-01  4.77973492348793271844e-05 6
6.43750000000000044409e-01  3.75000000000000000000e-01  8.31211532214833015431e-01  4.74918331657692149861e-05 6
6.50000000000000022204e-01  3.75000000000000000000e-01  8.23135524675667307193e-01  4.71663559885593386412e-05 6
6.56250000000000000000e-01  3.75000000000000000000e-01  8.14742184463046359433e-01  4.68209548748488302294e-05 6
6.62499999999999977796e-01  3.75000000000000000000e-01  8.06034747459840827943e-01  4.64556725394693614817e-05 6
6.68749999999999955591e-01  3.75000000000000000000e-01  7.97016570641462807068e-01  4.60705571115882506206e-05 6
6.75000000000000044409e-01  3.75000000000000000000e-01  7.87691130781769444091e-01  4.56656620360096354716e-05 6
6.81250000000000022204e-01  3.75000000000000000000e-01  7.78062023112807699121e-01  4.52410459442775803041e-05 6
6.87500000000000000000e-01  3.75000000000000000000e-01  7.68132959938873427497e-01  4.47967725430986618562e-05 6
6.93749999999999977796e-01  3.75000000000000000000e-01  7.57907769205461434581e-01  4.43329104750089797449e-05 6
6.99999999999999955591e-01  3.75000000000000000000e-01  7.47390393023598331723e-01  4.38495332144572813604e-05 6
7.06250000000000044409e-01  3.75000000000000000000e-01  7.36584886150199902310e-01  4.33467189222547233385e-05 6
7.12500000000000022204e-01  3.75000000000000000000e-01  7.25495414424982443258e-01  4.28245503185653575429e-05 6
7.18750000000000000000e-01  3.75000000000000000000e-01  7.14126253164532043272e-01  4.22831145713287170906e-05 6
7.24999999999999977796e-01  3.75000000000000000000e-01  7.02481785514214474020e-01  4.17225031358325892938e-05 6
7.31249999999999955591e-01  3.75000000000000000000e-01  6.90566500758467483045e-01  4.11428116428025347773e-05 6
7.37500000000000044409e-01  3.75000000000000000000e-01  6.78384992590206126195e-01  4.05441397498540467836e-05 6
7.43750000000000022204e-01  3.75000000000000000000e-01  6.65941957339967749441e-01  3.99265910046020522373e-05 6
7.50000000000000000000e-01  3.75000000000000000000e-01  6.53242192165470414444e-01  3.92902727178734423319e-05 6
7.56249999999999977796e-01  3.75000000000000000000e-01  6.40290593202321622890e-01  3.86352958211544361689e-05 6
7.62499999999999955591e-01  3.75000000000000000000e-01  6.27092153676556018915e-01  3.79617747313654163577e-05 6
7.68750000000000044409e-01  3.75000000000000000000e-01  6.13651961979756355170e-01  3.72698272009808206917e-05 6
7.75000000000000022204e-01  3.75000000000000000000e-01  5.99975199707471928967e-01  3.65595741858015799153e-05 6
7.81250000000000000000e-01  3.75000000000000000000e-01  5.86067139661691771657e-01  3.58311397169464029844e-05 6
7.87499999999999977796e-01  3.75000000000000000000e-01  5.71933143818175837580e-01  3.50846507600754975442e-05 6
7.93749999999999955591e-01  3.75000000000000000000e-01  5.57578661259413466134e-01  3.43202370615136587162e-05 6
8.00000000000000044409e-01  3.75000000000000000000e-01  5.43009226073949302638e-01  3.35380310496624645111e-05 6
8.06250000000000022204e-01  3.75000000000000000000e-01  5.28230455223016814870e-01  3.27381676518134767662e-05 6
8.12500000000000000000e-01  3.75000000000000000000e-01  5.13248046375124000740e-01  3.19207842126578711373e-05 6
8.18749999999999977796e-01  3.75000000000000000000e-01  4.98067775709594595668e-01  3.10860203395768586176e-05 6
8.24999999999999955591e-01  3.75000000000000000000e-01  4.82695495689818843132e-01  3.02340177703586121538e-05 6
8.31250000000000044409e-01  3.75000000000000000000e-01  4.67137132807073807150e-01  2.93649202637302764174e-05 6
8.37500000000000022204e-01  3.75000000000000000000e-01  4.51398685295831436637e-01  2.84788734597474224586e-05 6
8.43750000000000000000e-01  3.75000000000000000000e-01  4.35486220821352243426e-01  2.75760247967493654642e-05 6
8.49999999999999977796e-01  3.75000000000000000000e-01  4.19405874140590273491e-01  2.66565233477122909278e-05 6
8.56249999999999955591e-01  3.75000000000000000000e-01  4.03163844737144450026e-01  2.57205197488064030154e-05 6
8.62500000000000044409e-01  3.75000000000000000000e-01  3.86766394431311444357e-01  2.47681660655030277951e-05 6
8.68750000000000022204e-01  3.75000000000000000000e-01  3.70219844966071354175e-01  2.37996157024245036382e-05 6
8.75000000000000000000e-01  3.75000000000000000000e-01  3.53530575569965865856e-01  2.28150233079760234034e-05 6
8.81249999999999977796e-01  3.75000000000000000000e-01  3.36705020497837792526e-01  2.18145446659878672335e-05 6
8.87499999999999955591e-01  3.75000000000000000000e-01  3.19749666550326216985e-01  2.07983366106168077181e-05 6
8.93750000000000044409e-01  3.75000000000000000000e-01  3.02671050573097510927e-01  1.97665569486304981695e-05 6
9.00000000000000022204e-01  3.75000000000000000000e-01  2.85475756936818980680e-01  1.87193643504390827559e-05 6
9.06250000000000000000e-01  3.75000000000000000000e-01  2.68170414998734729650e-01  1.76569183077401881121e-05 6
9.12499999999999977796e-01  3.75000000000000000000e-01  2.50761696546950352271e-01  1.65793790481427727457e-05 6
9.18749999999999955591e-01  3.75000000000000000000e-01  2.33256313228344058786e-01  1.54869074578400933717e-05 6
9.25000000000000044409e-01  3.75000000000000000000e-01  2.15661013961092884461e-01  1.43796650283467553066e-05 6
9.31250000000000022204e-01  3.75000000000000000000e-01  1.97982582332852680151e-01  1.32578137762018322121e-05 6
9.37500000000000000000e-01  3.75000000000000000000e-01  1.80227833985513008486e-01  1.21215162242893637057e-05 6
9.43749999999999977796e-01  3.75000000000000000000e-01  1.62403613987650435879e-01  1.09709353245113216957e-05 6
9.49999999999999955591e-01  3.75000000000000000000e-01  1.44516794195621439689e-01  9.80623440038908000815e-06 6
9.56250000000000044409e-01  3.75000000000000000000e-01  1.26574270604269623064e-01  8.62757714370498973722e-06 6
9.62500000000000022204e-01  3.75000000000000000000e-01  1.08582960688432580976e-01  7.43512750767116870065e-06 6
9.68750000000000000000e-01  3.75000000000000000000e-01  9.05498007360356210738e-02  6.22904973222870861349e-06 6
9.74999999999999977796e-01  3.75000000000000000000e-01  7.24817431740368972592e-02  5.00950826290424977572e-06 6
9.81249999999999955591e-01  3.75000000000000000000e-01  5.43857538880938434778e-02  3.77666773085372220464e-06 6
9.87500000000000044409e-01  3.75000000000000000000e-01  3.62688095370589796973e-02  2.53069290848118022552e-06 6
9.93750000000000022204e-01  3.75000000000000000000e-01  1.81378948633215478226e-02  1.27174867431759097691e-06 6
1.00000000000000000000e+00  3.75000000000000000000e-01  0.00000000000000000000e+00  1.13142611228770026067e-16 6
0.00000000000000000000e+00  3.81249999999999977796e-01  0.00000000000000000000e+00  0.00000000000000000000e+00 6
6.25000000000000034694e-03  3.81249999999999977796e-01  1.82824953650482305290e-02  6.92278750165364886726e-07 6
1.25000000000000006939e-02  3.81249999999999977796e-01  3.65579307511531281794e-02  1.39601957058893555441e-06 6
1.87499999999999993061e-02  3.81249999999999977796e-01  5.48192609343677653144e-02  2.11064687255513305786e-06 6
2.50000000000000013878e-02  3.81249999999999977796e-01  7.30594461238852077578e-02  2.83558555463914174766e-06 6
3.12500000000000000000e-02  3.81249999999999977796e-01  9.12714546759865186232e-02  3.57026124973847114319e-06 6
3.74999999999999986122e-02  3.81249999999999977796e-01  1.09448265804851965766e-01  4.31410056786485363034e-06 6
4.37499999999999972244e-02  3.81249999999999977796e-01  1.27582872289183246739e-01  5.06653134149659400975e-06 6
5.00000000000000027756e-02  3.81249999999999977796e-01  1.45668283173599116820e-01  5.82698286780147789443e-06 6
5.62500000000000013878e-02  3.81249999999999977796e-01  1.63697526463757653259e-01  6.59488615262215915891e-06 6
6.25000000000000000000e-02  3.81249999999999977796e-01  1.81663651814178511712e-01  7.36967414430300671313e-06 6
6.87500000000000055511e-02  3.81249999999999977796e-01  1.99559733207712086678e-01  8.15078197358154454832e-06 6
7.49999999999999972244e-02  3.81249999999999977796e-01  2.17378871625637765108e-01  8.93764718432055182973e-06 6
8.12500000000000027756e-02  3.81249999999999977796e-01  2.35114197707355421230e-01  9.72970996229727269622e-06 6
8.74999999999999944489e-02  3.81249999999999977796e-01  2.52758874398646526949e-01  1.05264133588578445710e-05 6
9.37500000000000000000e-02  3.81249999999999977796e-01  2.70306099587482751012e-01  1.13272035117129021842e-05 6
1.00000000000000005551e-01  3.81249999999999977796e-01  2.87749108726370883549e-01  1.21315298572954866074e-05 6
1.06249999999999997224e-01  3.81249999999999977796e-01  3.05081177440211070984e-01  1.29388453464218677880e-05 6
1.12500000000000002776e-01  3.81249999999999977796e-01  3.22295624118687784598e-01  1.37486066388858851894e-05 6
1.18749999999999994449e-01  3.81249999999999977796e-01  3.39385812492163652099e-01  1.45602743071848728107e-05 6
1.25000000000000000000e-01  3.81249999999999977796e-01  3.56345154190102819669e-01  1.53733130292543762607e-05 6
1.31250000000000005551e-01  3.81249999999999977796e-01  3.73167111281035079884e-01  1.61871917729317083001e-05 6
1.37500000000000011102e-01  3.81249999999999977796e-01  3.89845198793075997656e-01  1.70013839779215025771e-05 6
1.43749999999999988898e-01  3.81249999999999977796e-01  4.06372987214040637394e-01  1.78153677244941022195e-05 6
1.49999999999999994449e-01  3.81249999999999977796e-01  4.22744104970169509716e-01  1.86286259090673311789e-05 6
1.56250000000000000000e-01  3.81249999999999977796e-01  4.38952240882535538180e-01  1.94406463986940281075e-05 6
1.62500000000000005551e-01  3.81249999999999977796e-01  4.54991146600162876812e-01  2.02509221895463831231e-05 6
1.68750000000000011102e-01  3.81249999999999977796e-01  4.70854639008932651656e-01  2.10589515551307115970e-05 6
1.74999999999999988898e-01  3.81249999999999977796e-01  4.86536602615343261036e-01  2.18642381874523117347e-05 6
1.81249999999999994449e-01  3.81249999999999977796e-01  5.02030991904199641596e-01  2.26662913380692998544e-05 6
1.87500000000000000000e-01  3.81249999999999977796e-01  5.17331833669337659565e-01  2.34646259443804794387e-05 6
1.93750000000000005551e-01  3.81249999999999977796e-01  5.32433229316467970804e-01  2.42587627572454778146e-05 6
2.00000000000000011102e-01  3.81249999999999977796e-01  5.47329357137261163224e-01  2.50482284610553662674e-05 6
2.06249999999999988898e-01  3.81249999999999977796e-01  5.62014474553799936452e-01  2.58325557832561614191e-05 6
2.12499999999999994449e-01  3.81249999999999977796e-01  5.76482920332519466200e-01  2.66112836075915737410e-05 6
2.18750000000000000000e-01  3.81249999999999977796e-01  5.90729116766797179849e-01  2.73839570750222804918e-05 6
2.25000000000000005551e-01  3.81249999999999977796e-01  6.04747571827339513995e-01  2.81501276846451986557e-05 6
2.31250000000000011102e-01  3.81249999999999977796e-01  6.18532881279542867681e-01  2.89093533875073305239e-05 6
2.37499999999999988898e-01  3.81249999999999977796e-01  6.32079730767020397941e-01  2.96611986649875092326e-05 6
2.43749999999999994449e-01  3.81249999999999977796e-01  6.45382897860455995165e-01  3.04052346294936270965e-05 6
2.50000000000000000000e-01  3.81249999999999977796e-01  6.58437254071042254999e-01  3.11410390960720206976e-05 6
2.56249999999999977796e-01  3.81249999999999977796e-01  6.71237766827702198036e-01  3.18681966550160566953e-05 6
2.62500000000000011102e-01  3.81249999999999977796e-01  6.83779501417321577961e-01  3.25862987511360557846e-05 6
2.68749999999999988898e-01  3.81249999999999977796e-01  6.96057622887267357648e-01  3.32949437479301835197e-05 6
2.75000000000000022204e-01  3.81249999999999977796e-01  7.08067397909448836835e-01  3.39937369889797835754e-05 6
2.81250000000000000000e-01  3.81249999999999977796e-01  7.19804196605191348723e-01  3.46822908628974246881e-05 6
2.87499999999999977796e-01  3.81249999999999977796e-01  7.31263494330234520291e-01  3.53602248620576986582e-05 6
2.93750000000000011102e-01  3.81249999999999977796e-01  7.42440873419163316349e-01  3.60271656346666802051e-05 6
2.99999999999999988898e-01  3.81249999999999977796e-01  7.53332024888599960377e-01  3.66827470299480040694e-05 6
3.06250000000000022204e-01  3.81249999999999977796e-01  7.63932750098484492085e-01  3.73266101548752615713e-05 6
3.12500000000000000000e-01  3.81249999999999977796e-01  7.74238962370825678505e-01  3.79584034165825201512e-05 6
3.18749999999999977796e-01  3.81249999999999977796e-01  7.84246688565288230244e-01  3.85777825633315529785e-05 6
3.25000000000000011102e-01  3.81249999999999977796e-01  7.93952070611012805657e-01  3.91844107185956858075e-05 6
3.31249999999999988898e-01  3.81249999999999977796e-01  8.03351366994061066862e-01  3.97779584245805395426e-05 6
3.37500000000000022204e-01  3.81249999999999977796e-01  8.12440954199932674484e-01  4.03581036785283231438e-05 6
3.43750000000000000000e-01  3.81249999999999977796e-01  8.21217328110600774949e-01  4.09245319540341156994e-05 6
3.49999999999999977796e-01  3.81249999999999977796e-01  8.29677105355497435113e-01  4.14769362416800291271e-05 6
3.56250000000000011102e-01  3.81249999999999977796e-01  8.37817024615974403901e-01  4.20150170604705053279e-05 6
3.62499999999999988898e-01  3.81249999999999977796e-01  8.45633947882678649322e-01  4.25384824971342112576e-05 6
3.68750000000000022204e-01  3.81249999999999977796e-01  8.53124861665417899559e-01  4.30470482173372914758e-05 6
3.75000000000000000000e-01  3.81249999999999977796e-01  8.60286878154998047030e-01  4.35404374936609883662e-05 6
3.81249999999999977796e-01  3.81249999999999977796e-01  8.67117236336632846161e-01  4.40183812097094673277e-05 6
3.87500000000000011102e-01  3.81249999999999977796e-01  8.73613303054443846030e-01  4.44806178868661916681e-05 6
3.93749999999999988898e-01  3.81249999999999977796e-01  8.79772574026683296111e-01  4.49268936935087737083e-05 6
4.00000000000000022204e-01  3.81249999999999977796e-01  8.85592674811279456648e-01  4.53569624467853316219e-05 6
4.06250000000000000000e-01  3.81249999999999977796e-01  8.91071361721307186876e-01  4.57705856292678348041e-05 6
4.12499999999999977796e-01  3.81249999999999977796e-01  8.96206522690059848024e-01  4.61675323920607283412e-05 6
4.18750000000000011102e-01  3.81249999999999977796e-01  9.00996178085378796041e-01  4.65475795579095574794e-05 6
4.24999999999999988898e-01  3.81249999999999977796e-01  9.05438481472931266936e-01  4.69105116139845179646e-05 6
4.31250000000000022204e-01  3.81249999999999977796e-01  9.09531720328122572639e-01  4.72561207188748610974e-05 6
4.37500000000000000000e-01  3.81249999999999977796e-01  9.13274316696393029247e-01  4.75842066959275555860e-05 6
4.43749999999999977796e-01  3.81249999999999977796e-01  9.16664827801634607418e-01  4.78945770265859493975e-05 6
4.50000000000000011102e-01  3.81249999999999977796e-01  9.19701946602490938432e-01  4.81870468411749186544e-05 6
4.56249999999999988898e-01  3.81249999999999977796e-01  9.22384502296335950788e-01  4.84614389008042323326e-05 6
4.62500000000000022204e-01  3.81249999999999977796e-01  9.24711460770715976132e-01  4.87175835913733479288e-05 6
4.68750000000000000000e-01  3.81249999999999977796e-01  9.26681925002104001088e-01  4.89553189033653524120e-05 6
4.74999999999999977796e-01  3.81249999999999977796e-01  9.28295135401802862241e-01  4.91744904121960146881e-05 6
4.81250000000000011102e-01  3.81249999999999977796e-01  9.29550470108863047258e-01  4.93749512543439905699e-05 6
4.87499999999999988898e-01  3.81249999999999977796e-01  9.30447445229899749997e-01  4.95565621070337414267e-05 6
4.93750000000000022204e-01  3.81249999999999977796e-01  9.30985715025730131700e-01  4.97191911551508880507e-05 6
5.00000000000000000000e-01  3.81249999999999977796e-01  9.31165072044738306722e-01  4.98627140651519695780e-05 6
5.06249999999999977796e-01  3.81249999999999977796e-01  9.30985447202936189370e-01  4.99870139490932174908e-05 6
5.12499999999999955591e-01  3.81249999999999977796e-01  9.30446909810674904762e-01  5.00919813318789763912e-05 6
5.18750000000000044409e-01  3.81249999999999977796e-01  9.29549667546009428243e-01  5.01775141079630060403e-05 6
5.25000000000000022204e-01  3.81249999999999977796e-01  9.28294066374710569178e-01  5.02435175044890769414e-05 6
5.31250000000000000000e-01  3.81249999999999977796e-01  9.26680590416976368573e-01  5.02899040311088896260e-05 6
5.37499999999999977796e-01  3.81249999999999977796e-01  9.24709861760867890546e-01  5.03165934394589342560e-05 6
5.43749999999999955591e-01  3.81249999999999977796e-01  9.22382640222572325328e-01  5.03235126644296926202e-05 6
5.50000000000000044409e-01  3.81249999999999977796e-01  9.19699823053551801522e-01  5.03105957802008063595e-05 6
5.56250000000000022204e-01  3.81249999999999977796e-01  9.16662444594727121583e-01  5.02777839340717846994e-05 6
5.62500000000000000000e-01  3.81249999999999977796e-01  9.13271675877797339815e-01  5.02250252916169870332e-05 6
5.68749999999999977796e-01  3.81249999999999977796e-01  9.09528824173867267433e-01  5.01522749741800666357e-05 6
5.74999999999999955591e-01  3.81249999999999977796e-01  9.05435332489552324731e-01  5.00594949930377453029e-05 6
5.81250000000000044409e-01  3.81249999999999977796e-01  9.00992779010758249036e-01  4.99466541784565620787e-05 6
5.87500000000000022204e-01  3.81249999999999977796e-01  8.96202876494343936287e-01  4.98137281079724658639e-05 6
5.93750000000000000000e-01  3.81249999999999977796e-01  8.91067471607901340214e-01  4.96606990351144972351e-05 6
5.99999999999999977796e-01  3.81249999999999977796e-01  8.85588544217921325163e-01  4.94875558050278385736e-05 6
6.06249999999999955591e-01  3.81249999999999977796e-01  8.79768206626598603393e-01  4.92942937783125145756e-05 6
6.12500000000000044409e-01  3.81249999999999977796e-01  8.73608702757589172805e-01  4.90809147414283941657e-05 6
6.18750000000000022204e-01  3.81249999999999977796e-01  8.67112407291017572852e-01  4.88474268250937981861e-05 6
6.25000000000000000000e-01  3.81249999999999977796e-01  8.60281824748080903298e-01  4.85938444108047207237e-05 6
6.31249999999999977796e-01  3.81249999999999977796e-01  8.53119588525600436313e-01  4.83201880348005374799e-05 6
6.37499999999999955591e-01  3.81249999999999977796e-01  8.45628459880878646793e-01  4.80264842973587846586e-05 6