Titile = 'Poisson'  
VARIABLES = X, Y, U, Error, Rank 
zone N= 1771, E = 3200
DATAPACKING=POINT, ZONETYPE=FETRIANGLE
0.00000000000000000000e+00  4.37500000000000000000e-01  0.00000000000000000000e+00  0.00000000000000000000e+00 7
6.25000000000000034694e-03  4.37500000000000000000e-01  1.92596329883149147699e-02  3.19642296679745196997e-06 7
1.25000000000000006939e-02  4.37500000000000000000e-01  3.85117358857546901452e-02  6.28647791741515638009e-06 7
1.87499999999999993061e-02  4.37500000000000000000e-01  5.77448650683451553123e-02  5.24740175019550170177e-06 7
2.50000000000000013878e-02  4.37500000000000000000e-01  7.69557325062265873417e-02  4.20630260829224500441e-06 7
3.12500000000000000000e-02  4.37500000000000000000e-01  9.61369320443098696050e-02  3.16358185899201505009e-06 7
3.74999999999999986122e-02  4.37500000000000000000e-01  1.15281068965033012264e-01  2.11964148177923306093e-06 7
4.37499999999999972244e-02  4.37500000000000000000e-01  1.34380762839207912318e-01  1.07488395570398687084e-06 7
5.00000000000000027756e-02  4.37500000000000000000e-01  1.53428650371237373928e-01  2.97120252013005625713e-08 7
5.62500000000000013878e-02  4.37500000000000000000e-01  1.72417388237915775173e-01  1.01547134490065360524e-06 7
6.25000000000000000000e-02  4.37500000000000000000e-01  1.91339655919302187304e-01  2.06026324267583049732e-06 7
6.87500000000000055511e-02  4.37500000000000000000e-01  2.10188158521026069447e-01  3.10426085858850342447e-06 7
7.49999999999999972244e-02  4.37500000000000000000e-01  2.28955629586508030426e-01  4.14706174028944829502e-06 7
8.12500000000000027756e-02  4.37500000000000000000e-01  2.47634833898428469157e-01  5.18826383708037575104e-06 7
8.74999999999999944489e-02  4.37500000000000000000e-01  2.66218570267941212482e-01  6.22746575468235974427e-06 7
9.37500000000000000000e-02  4.37500000000000000000e-01  2.84699674310904982111e-01  7.26426687408521232214e-06 7
1.00000000000000005551e-01  4.37500000000000000000e-01  3.03071021209911917182e-01  8.29826748433015737305e-06 7
1.06249999999999997224e-01  4.37500000000000000000e-01  3.21325528461024134685e-01  9.32906895212415321339e-06 7
1.12500000000000002776e-01  4.37500000000000000000e-01  3.39456158604217794750e-01  1.03562738720253122437e-05 7
1.18749999999999994449e-01  4.37500000000000000000e-01  3.57455921936392251315e-01  1.13794862851013256488e-05 7
1.25000000000000000000e-01  4.37500000000000000000e-01  3.75317879206213733667e-01  1.23983116515069546892e-05 7
1.31250000000000005551e-01  4.37500000000000000000e-01  3.93035144289087812197e-01  1.34123572436695148724e-05 7
1.37500000000000011102e-01  4.37500000000000000000e-01  4.10600886842041767899e-01  1.44212321475656324310e-05 7
1.43749999999999988898e-01  4.37500000000000000000e-01  4.28008334937046486246e-01  1.54245473181213732516e-05 7
1.49999999999999994449e-01  4.37500000000000000000e-01  4.45250777671309605488e-01  1.64219161444822958629e-05 7
1.56250000000000000000e-01  4.37500000000000000000e-01  4.62321567755154594348e-01  1.74129538993428312210e-05 7
1.62500000000000005551e-01  4.37500000000000000000e-01  4.79214124073881864163e-01  1.83972786836350543638e-05 7
1.68750000000000011102e-01  4.37500000000000000000e-01  4.95921934225514171590e-01  1.93745109733911569094e-05 7
1.74999999999999988898e-01  4.37500000000000000000e-01  5.12438557031199670710e-01  2.03442740176473790825e-05 7
1.81249999999999994449e-01  4.37500000000000000000e-01  5.28757625018479560097e-01  2.13061939131620192711e-05 7
1.87500000000000000000e-01  4.37500000000000000000e-01  5.44872846875914751408e-01  2.22598999037870726170e-05 7
1.93750000000000005551e-01  4.37500000000000000000e-01  5.60778009878765248963e-01  2.32050242645609472447e-05 7
2.00000000000000011102e-01  4.37500000000000000000e-01  5.76466982283865725378e-01  2.41412026911191901490e-05 7
2.06249999999999988898e-01  4.37500000000000000000e-01  5.91933715693856887796e-01  2.50680741125108852430e-05 7
2.12499999999999994449e-01  4.37500000000000000000e-01  6.07172247388326424833e-01  2.59852814623595662624e-05 7
2.18750000000000000000e-01  4.37500000000000000000e-01  6.22176702623478683485e-01  2.68924708886064678381e-05 7
2.25000000000000005551e-01  4.37500000000000000000e-01  6.36941296896071040834e-01  2.77892927789125110394e-05 7
2.31250000000000011102e-01  4.37500000000000000000e-01  6.51460338173913910964e-01  2.86754014319212657824e-05 7
2.37499999999999988898e-01  4.37500000000000000000e-01  6.65728229090397971568e-01  2.95504550500425011705e-05 7
2.43749999999999994449e-01  4.37500000000000000000e-01  6.79739469101738880141e-01  3.04141165180515926636e-05 7
2.50000000000000000000e-01  4.37500000000000000000e-01  6.93488656608419518079e-01  3.12660526541330696659e-05 7
2.56249999999999977796e-01  4.37500000000000000000e-01  7.06970491036737036517e-01  3.21059352123009844604e-05 7
2.62500000000000011102e-01  4.37500000000000000000e-01  7.20179774882966694527e-01  3.29334403159631250446e-05 7
2.68749999999999988898e-01  4.37500000000000000000e-01  7.33111415716785286278e-01  3.37482488962370652530e-05 7
2.75000000000000022204e-01  4.37500000000000000000e-01  7.45760428144253695315e-01  3.45500470619874988643e-05 7
2.81250000000000000000e-01  4.37500000000000000000e-01  7.58121935730667773079e-01  3.53385253325511072831e-05 7
2.87499999999999977796e-01  4.37500000000000000000e-01  7.70191172879405416829e-01  3.61133798701951391763e-05 7
2.93750000000000011102e-01  4.37500000000000000000e-01  7.81963486669517537919e-01  3.68743122339809659138e-05 7
2.99999999999999988898e-01  4.37500000000000000000e-01  7.93434338650319870290e-01  3.76210286916478509056e-05 7
3.06250000000000022204e-01  4.37500000000000000000e-01  8.04599306589718232807e-01  3.83532416676768406205e-05 7
3.12500000000000000000e-01  4.37500000000000000000e-01  8.15454086180436243936e-01  3.90706684808561632849e-05 7
3.18749999999999977796e-01  4.37500000000000000000e-01  8.25994492697642468393e-01  3.97730332185597390549e-05 7
3.25000000000000011102e-01  4.37500000000000000000e-01  8.36216462614910560625e-01  4.04600641742414168789e-05 7
3.31249999999999988898e-01  4.37500000000000000000e-01  8.46116055167111413837e-01  4.11314976258569942047e-05 7
3.37500000000000022204e-01  4.37500000000000000000e-01  8.55689453874192262894e-01  4.17870733999681220894e-05 7
3.43750000000000000000e-01  4.37500000000000000000e-01  8.64932968007370073238e-01  4.24265401027801303258e-05 7
3.49999999999999977796e-01  4.37500000000000000000e-01  8.73843034017014352877e-01  4.30496501816479693048e-05 7
3.56250000000000011102e-01  4.37500000000000000000e-01  8.82416216902509709108e-01  4.36561639738375362185e-05 7
3.62499999999999988898e-01  4.37500000000000000000e-01  8.90649211538901863783e-01  4.42458474101403709255e-05 7
3.68750000000000022204e-01  4.37500000000000000000e-01  8.98538843950126620008e-01  4.48184730664769048758e-05 7
3.75000000000000000000e-01  4.37500000000000000000e-01  9.06082072532234827911e-01  4.53738206529497034580e-05 7
3.81249999999999977796e-01  4.37500000000000000000e-01  9.13275989227463336206e-01  4.59116756256205960085e-05 7
3.87500000000000011102e-01  4.37500000000000000000e-01  9.20117820643870709674e-01  4.64318307442646016625e-05 7
3.93749999999999988898e-01  4.37500000000000000000e-01  9.26604929125256271405e-01  4.69340854282185304669e-05 7
4.00000000000000022204e-01  4.37500000000000000000e-01  9.32734813767465253953e-01  4.74182463964245570764e-05 7
4.06250000000000000000e-01  4.37500000000000000000e-01  9.38505111383834189631e-01  4.78841264418550238702e-05 7
4.12499999999999977796e-01  4.37500000000000000000e-01  9.43913597414095417726e-01  4.83315466525136017140e-05 7
4.18750000000000011102e-01  4.37500000000000000000e-01  9.48958186784983226403e-01  4.87603334854425085609e-05 7
4.24999999999999988898e-01  4.37500000000000000000e-01  9.53636934709917394315e-01  4.91703229846818246074e-05 7
4.31250000000000022204e-01  4.37500000000000000000e-01  9.57948037443778432909e-01  4.95613558220142635946e-05 7
4.37500000000000000000e-01  4.37500000000000000000e-01  9.61889832973282343787e-01  4.99332823610254550317e-05 7
4.43749999999999977796e-01  4.37500000000000000000e-01  9.65460801662360257325e-01  5.02859580738812539380e-05 7
4.50000000000000011102e-01  4.37500000000000000000e-01  9.68659566833597995839e-01  5.06192480055345228607e-05 7
4.56249999999999988898e-01  4.37500000000000000000e-01  9.71484895302733519884e-01  5.09330230634708058801e-05 7
4.62500000000000022204e-01  4.37500000000000000000e-01  9.73935697851397441660e-01  5.12271627433058540646e-05 7
4.68750000000000000000e-01  4.37500000000000000000e-01  9.76011029649346495418e-01  5.15015528562701163651e-05 7
4.74999999999999977796e-01  4.37500000000000000000e-01  9.77710090615553917281e-01  5.17560887328682994735e-05 7
4.81250000000000011102e-01  4.37500000000000000000e-01  9.79032225730759875226e-01  5.19906711586859415775e-05 7
4.87499999999999988898e-01  4.37500000000000000000e-01  9.79976925285952593647e-01  5.22052104545700501603e-05 7
4.93750000000000022204e-01  4.37500000000000000000e-01  9.80543825081859554693e-01  5.23996235224366557759e-05 7
5.00000000000000000000e-01  4.37500000000000000000e-01  9.80732706567459255886e-01  5.25738357711746928658e-05 7
5.06249999999999977796e-01  4.37500000000000000000e-01  9.80543496925833535371e-01  5.27277795484559774764e-05 7
5.12499999999999955591e-01  4.37500000000000000000e-01  9.79976269100666042000e-01  5.28613957411216972559e-05 7
5.18750000000000044409e-01  4.37500000000000000000e-01  9.79031241768630766664e-01  5.29746332877945036444e-05 7
5.25000000000000022204e-01  4.37500000000000000000e-01  9.77708779256889815024e-01  5.30674473969705573495e-05 7
5.31250000000000000000e-01  4.37500000000000000000e-01  9.76009391398471981560e-01  5.31398037308949966473e-05 7
5.37499999999999977796e-01  4.37500000000000000000e-01  9.73933733340980323234e-01  5.31916731604242798426e-05 7
5.43749999999999955591e-01  4.37500000000000000000e-01  9.71482605289341827337e-01  5.32230364551633527981e-05 7
5.50000000000000044409e-01  4.37500000000000000000e-01  9.68656952200430021449e-01  5.32338811733978900520e-05 7
5.56250000000000022204e-01  4.37500000000000000000e-01  9.65457863417298334241e-01  5.32242031358043377054e-05 7
5.62500000000000000000e-01  4.37500000000000000000e-01  9.61886572249324167672e-01  5.31940063192015699656e-05 7
5.68749999999999977796e-01  4.37500000000000000000e-01  9.57944455497609537176e-01  5.31433019909099968459e-05 7
5.74999999999999955591e-01  4.37500000000000000000e-01  9.53633032923007717407e-01  5.30721098944697544653e-05 7
5.81250000000000044409e-01  4.37500000000000000000e-01  9.48953966660837644476e-01  5.29804576310244357273e-05 7
5.87500000000000022204e-01  4.37500000000000000000e-01  9.43909060580387371253e-01  5.28683803605600743936e-05 7
5.93750000000000000000e-01  4.37500000000000000000e-01  9.38500259589057028720e-01  5.27359212190159354350e-05 7
5.99999999999999977796e-01  4.37500000000000000000e-01  9.32729648882200557125e-01  5.25831316612324073390e-05 7
6.06249999999999955591e-01  4.37500000000000000000e-01  9.26599453140667161932e-01  5.24100700173280031890e-05 7
6.12500000000000044409e-01  4.37500000000000000000e-01  9.20112035671124539604e-01  5.22168034903236488731e-05 7
6.18750000000000022204e-01  4.37500000000000000000e-01  9.13269897496683635829e-01  5.20034064054319955517e-05 7
6.25000000000000000000e-01  4.37500000000000000000e-01  9.06075676392072537624e-01  5.17699608152399903815e-05 7
6.31249999999999977796e-01  4.37500000000000000000e-01  8.98532145866106968235e-01  5.15165570861286781223e-05 7
6.37499999999999955591e-01  4.37500000000000000000e-01  8.90642214094051309914e-01  5.12432922608052621172e-05 7
6.43750000000000044409e-01  4.37500000000000000000e-01  8.82408922793195715784e-01  5.09502732877198383221e-05 7
6.50000000000000022204e-01  4.37500000000000000000e-01  8.73835446056499987044e-01  5.06376106961248240168e-05 7
6.56250000000000000000e-01  4.37500000000000000000e-01  8.64925089120093582018e-01  5.03054273793823725214e-05 7
6.62499999999999977796e-01  4.37500000000000000000e-01  8.55681287097788567664e-01  4.99538498038853973071e-05 7
6.68749999999999955591e-01  4.37500000000000000000e-01  8.46107603650441575383e-01  4.95830142959174935413e-05 7
6.75000000000000044409e-01  4.37500000000000000000e-01  8.36207729615495498621e-01  4.91930635894144430154e-05 7
6.81250000000000022204e-01  4.37500000000000000000e-01  8.25985481583126346372e-01  4.87841477347927821029e-05 7
6.87500000000000000000e-01  4.37500000000000000000e-01  8.15444800424132587580e-01  4.83564247847345640707e-05 7
6.93749999999999977796e-01  4.37500000000000000000e-01  8.04589749771467133144e-01  4.79100599187765041620e-05 7
6.99999999999999955591e-01  4.37500000000000000000e-01  7.93424514454900031701e-01  4.74452241114864392557e-05 7
7.06250000000000044409e-01  4.37500000000000000000e-01  7.81953398883571737521e-01  4.69620981797813641379e-05 7
7.12500000000000022204e-01  4.37500000000000000000e-01  7.70180825392896561965e-01  4.64608663790500031610e-05 7
7.18750000000000000000e-01  4.37500000000000000000e-01  7.58111332531885784292e-01  4.59417241146509169880e-05 7
7.24999999999999977796e-01  4.37500000000000000000e-01  7.45749573321626169076e-01  4.54048696895137382512e-05 7
7.31249999999999955591e-01  4.37500000000000000000e-01  7.33100313454820851078e-01  4.48505108610053326856e-05 7
7.37500000000000044409e-01  4.37500000000000000000e-01  7.20168429461471415465e-01  4.42788618111311649272e-05 7
7.43750000000000022204e-01  4.37500000000000000000e-01  7.06958906830364108842e-01  4.36901415854507035874e-05 7
7.50000000000000000000e-01  4.37500000000000000000e-01  6.93476838082258462137e-01  4.30845788153000341936e-05 7
7.56249999999999977796e-01  4.37500000000000000000e-01  6.79727420812424210084e-01  4.24624058327216502562e-05 7
7.62499999999999955591e-01  4.37500000000000000000e-01  6.65715955682875004662e-01  4.18238625733424740361e-05 7
7.68750000000000044409e-01  4.37500000000000000000e-01  6.51447844379685836458e-01  4.11691956597737274137e-05 7
7.75000000000000022204e-01  4.37500000000000000000e-01  6.36928587531709111680e-01  4.04986571409526874277e-05 7
7.81250000000000000000e-01  4.37500000000000000000e-01  6.22163782588709302068e-01  3.98125056579878844332e-05 7
7.87499999999999977796e-01  4.37500000000000000000e-01  6.07159121664070600133e-01  3.91110057184063109048e-05 7
7.93749999999999955591e-01  4.37500000000000000000e-01  5.91920389340545916035e-01  3.83944274235936688910e-05 7
8.00000000000000044409e-01  4.37500000000000000000e-01  5.76453460438471787519e-01  3.76630480851680715659e-05 7
8.06250000000000022204e-01  4.37500000000000000000e-01  5.60764297754971496879e-01  3.69171480583130318109e-05 7
8.12500000000000000000e-01  4.37500000000000000000e-01  5.44858949759371102850e-01  3.61570164474356303685e-05 7
8.18749999999999977796e-01  4.37500000000000000000e-01  5.28743548267132990048e-01  3.53829452599541127711e-05 7
8.24999999999999955591e-01  4.37500000000000000000e-01  5.12424306071817992070e-01  3.45952333994370420100e-05 7
8.31250000000000044409e-01  4.37500000000000000000e-01  4.95907514552051231771e-01  3.37941844363309762400e-05 7
8.37500000000000022204e-01  4.37500000000000000000e-01  4.79199541245578397586e-01  3.29801069870461205369e-05 7
8.43750000000000000000e-01  4.37500000000000000000e-01  4.62306827393881458743e-01  3.21533151727004806730e-05 7
8.49999999999999977796e-01  4.37500000000000000000e-01  4.45235885459605906789e-01  3.13141278482920171200e-05 7
8.56249999999999955591e-01  4.37500000000000000000e-01  4.27993296616412499667e-01  3.04628679525520418281e-05 7
8.62500000000000044409e-01  4.37500000000000000000e-01  4.10585708209650512845e-01  2.95998645386541525681e-05 7
8.68750000000000022204e-01  4.37500000000000000000e-01  3.93019831197096825015e-01  2.87254492348787415779e-05 7
8.75000000000000000000e-01  4.37500000000000000000e-01  3.75302437557584578354e-01  2.78399602807732904353e-05 7
8.81249999999999977796e-01  4.37500000000000000000e-01  3.57440357684562115548e-01  2.69437381152370925008e-05 7
8.87499999999999955591e-01  4.37500000000000000000e-01  3.39440477749445967959e-01  2.60371286441851701454e-05 7
8.93750000000000044409e-01  4.37500000000000000000e-01  3.21309737048367349832e-01  2.51204816087979843076e-05 7
9.00000000000000022204e-01  4.37500000000000000000e-01  3.03055125327626517784e-01  2.41941497698405783012e-05 7
9.06250000000000000000e-01  4.37500000000000000000e-01  2.84683680086754931082e-01  2.32584910241917519613e-05 7
9.12499999999999977796e-01  4.37500000000000000000e-01  2.66202483868228367836e-01  2.23138654678045611490e-05 7
9.18749999999999955591e-01  4.37500000000000000000e-01  2.47618661524766192628e-01  2.13606374995789494164e-05 7
9.25000000000000044409e-01  4.37500000000000000000e-01  2.28939377473513616668e-01  2.03991747348419849573e-05 7
9.31250000000000022204e-01  4.37500000000000000000e-01  2.10171832934367364132e-01  1.94298475172660634058e-05 7
9.37500000000000000000e-01  4.37500000000000000000e-01  1.91323263152716277480e-01  1.84530298289464766981e-05 7
9.43749999999999977796e-01  4.37500000000000000000e-01  1.72400934611126932516e-01  1.74690981339653550464e-05 7
9.49999999999999955591e-01  4.37500000000000000000e-01  1.53412142227525916116e-01  1.64784316863675339704e-05 7
9.56250000000000044409e-01  4.37500000000000000000e-01  1.34364206542574970982e-01  1.54814126772651050601e-05 7
9.62500000000000022204e-01  4.37500000000000000000e-01  1.15264470898471402260e-01  1.44784250797336255800e-05 7
9.68750000000000000000e-01  4.37500000000000000000e-01  9.61202986065169268093e-02  1.34698559341728252292e-05 7
9.74999999999999977796e-01  4.37500000000000000000e-01  7.69390701097788926033e-02  1.24560938395273934631e-05 7
9.81249999999999955591e-01  4.37500000000000000000e-01  5.77281801369522243328e-02  1.14375296431795669960e-05 7
9.87500000000000044409e-01  4.37500000000000000000e-01  3.84950348516996526671e-02  1.04145561375182382768e-05 7
9.93750000000000022204e-01  4.37500000000000000000e-01  1.92511757053490939473e-02  5.26085999925235414665e-06 7
1.00000000000000000000e+00  4.37500000000000000000e-01  0.00000000000000000000e+00  1.20111555429665550461e-16 7
0.00000000000000000000e+00  4.43749999999999977796e-01  0.00000000000000000000e+00  0.00000000000000000000e+00 7
6.25000000000000034694e-03  4.43749999999999977796e-01  1.93307028745019343630e-02  2.77438655323786198537e-06 7
1.25000000000000006939e-02  4.43749999999999977796e-01  3.86538586570489214878e-02  5.45296550756579900820e-06 7
1.87499999999999993061e-02  4.43749999999999977796e-01  5.79583940568232439117e-02  4.41085778936367578495e-06 7
2.50000000000000013878e-02  4.43749999999999977796e-01  7.72405853924020835422e-02  3.36704960340883374670e-06 7
3.12500000000000000000e-02  4.43749999999999977796e-01  9.64929990119671038284e-02  2.32194335245128335998e-06 7
3.74999999999999986122e-02  4.43749999999999977796e-01  1.15708212743589375360e-01  1.27594195271918398049e-06 7
4.37499999999999972244e-02  4.43749999999999977796e-01  1.34878818756584306637e-01  2.29448644917251698416e-07 7
5.00000000000000027756e-02  4.43749999999999977796e-01  1.53997426417424809753e-01  8.17133107788858836784e-07 7
5.62500000000000013878e-02  4.43749999999999977796e-01  1.73056665138894755218e-01  1.86339985172589983620e-06 7
6.25000000000000000000e-02  4.43749999999999977796e-01  1.92049187221683015370e-01  2.90894820592635383605e-06 7
6.87500000000000055511e-02  4.43749999999999977796e-01  2.10967670686958819193e-01  3.95337512038018701332e-06 7
7.49999999999999972244e-02  4.43749999999999977796e-01  2.29804822099244437927e-01  4.99627792052703689762e-06 7
8.12500000000000027756e-02  4.43749999999999977796e-01  2.48553379378059852156e-01  6.03725457665182929645e-06 7
8.74999999999999944489e-02  4.43749999999999977796e-01  2.67206114597701938074e-01  7.07590374937616672923e-06 7
9.37500000000000000000e-02  4.43749999999999977796e-01  2.85755836773672167173e-01  8.11182501997409488581e-06 7
1.00000000000000005551e-01  4.43749999999999977796e-01  3.04195394634955262880e-01  9.14461902751240174325e-06 7
1.06249999999999997224e-01  4.43749999999999977796e-01  3.22517679380983857129e-01  1.01738876089885188492e-05 7
1.12500000000000002776e-01  4.43749999999999977796e-01  3.40715627422189581974e-01  1.11992339799638074282e-05 7
1.18749999999999994449e-01  4.43749999999999977796e-01  3.58782223103229436223e-01  1.22202628091150344858e-05 7
1.25000000000000000000e-01  4.43749999999999977796e-01  3.76710501407516273886e-01  1.32365805092238275620e-05 7
1.31250000000000005551e-01  4.43749999999999977796e-01  3.94493550642507240234e-01  1.42477952465580592900e-05 7
1.37500000000000011102e-01  4.43749999999999977796e-01  4.12124515104213662298e-01  1.52535171714651696107e-05 7
1.43749999999999988898e-01  4.43749999999999977796e-01  4.29596597720114103947e-01  1.62533586595126067209e-05 7
1.49999999999999994449e-01  4.43749999999999977796e-01  4.46903062669999517897e-01  1.72469340173342366995e-05 7
1.56250000000000000000e-01  4.43749999999999977796e-01  4.64037237981864914005e-01  1.82338605257403862936e-05 7
1.62500000000000005551e-01  4.43749999999999977796e-01  4.80992518105268773709e-01  1.92137574006601141718e-05 7
1.68750000000000011102e-01  4.43749999999999977796e-01  4.97762366456745597443e-01  2.01862470926572612484e-05 7
1.74999999999999988898e-01  4.43749999999999977796e-01  5.14340317940677693720e-01  2.11509545379184871194e-05 7
1.81249999999999994449e-01  4.43749999999999977796e-01  5.30719981441030386193e-01  2.21075079852584011064e-05 7
1.87500000000000000000e-01  4.43749999999999977796e-01  5.46895042285967969420e-01  2.30555384204134128368e-05 7
1.93750000000000005551e-01  4.43749999999999977796e-01  5.62859264681296656008e-01  2.39946806911417453989e-05 7
2.00000000000000011102e-01  4.43749999999999977796e-01  5.78606494115845304549e-01  2.49245722850899298351e-05 7
2.06249999999999988898e-01  4.43749999999999977796e-01  5.94130659732343247015e-01  2.58448552729051428400e-05 7
2.12499999999999994449e-01  4.43749999999999977796e-01  6.09425776669967667054e-01  2.67551743294847099719e-05 7
2.18750000000000000000e-01  4.43749999999999977796e-01  6.24485948369504106914e-01  2.76551789888390686656e-05 7
2.25000000000000005551e-01  4.43749999999999977796e-01  6.39305368848487542976e-01  2.85445218731750216534e-05 7
2.31250000000000011102e-01  4.43749999999999977796e-01  6.53878324937953392393e-01  2.94228603935353660859e-05 7
2.37499999999999988898e-01  4.43749999999999977796e-01  6.68199198486074341652e-01  3.02898557792419254042e-05 7
2.43749999999999994449e-01  4.43749999999999977796e-01  6.82262468523380904983e-01  3.11451738939094724401e-05 7
2.50000000000000000000e-01  4.43749999999999977796e-01  6.96062713391564891197e-01  3.19884849979690244481e-05 7
2.56249999999999977796e-01  4.43749999999999977796e-01  7.09594612833680860042e-01  3.28194638281598116691e-05 7
2.62500000000000011102e-01  4.43749999999999977796e-01  7.22852950044711950461e-01  3.36377902170337250709e-05 7
2.68749999999999988898e-01  4.43749999999999977796e-01  7.35832613683433778284e-01  3.44431485291840644436e-05 7
2.75000000000000022204e-01  4.43749999999999977796e-01  7.48528599842439024137e-01  3.52352282797507854184e-05 7
2.81250000000000000000e-01  4.43749999999999977796e-01  7.60936013977145497833e-01  3.60137243449187849365e-05 7
2.87499999999999977796e-01  4.43749999999999977796e-01  7.73050072793409093208e-01  3.67783364091378572880e-05 7
2.93750000000000011102e-01  4.43749999999999977796e-01  7.84866106090953530305e-01  3.75287697012005594388e-05 7
2.99999999999999988898e-01  4.43749999999999977796e-01  7.96379558564133005483e-01  3.82647347956233119248e-05 7
3.06250000000000022204e-01  4.43749999999999977796e-01  8.07585991557548510400e-01  3.89859482659016265416e-05 7
3.12500000000000000000e-01  4.43749999999999977796e-01  8.18481084778035827831e-01  3.96921319915088943731e-05 7
3.18749999999999977796e-01  4.43749999999999977796e-01  8.29060637960003621316e-01  4.03830134824145758898e-05 7
3.25000000000000011102e-01  4.43749999999999977796e-01  8.39320572484091642629e-01  4.10583266083897058252e-05 7
3.31249999999999988898e-01  4.43749999999999977796e-01  8.49256932950442355867e-01  4.17178108150784154873e-05 7
3.37500000000000022204e-01  4.43749999999999977796e-01  8.58865888702423418977e-01  4.23612123839900434064e-05 7
3.43750000000000000000e-01  4.43749999999999977796e-01  8.68143735305347274966e-01  4.29882826018523900302e-05 7
3.49999999999999977796e-01  4.43749999999999977796e-01  8.77086895972381097586e-01  4.35987800767589916973e-05 7
3.56250000000000011102e-01  4.43749999999999977796e-01  8.85691922944926379735e-01  4.41924693710404881131e-05 7
3.62499999999999988898e-01  4.43749999999999977796e-01  8.93955498821181082647e-01  4.47691217054790868701e-05 7
3.68750000000000022204e-01  4.43749999999999977796e-01  9.01874437835426534527e-01  4.53285146844173425507e-05 7
3.75000000000000000000e-01  4.43749999999999977796e-01  9.09445687085880472011e-01  4.58704326989911592705e-05 7
3.81249999999999977796e-01  4.43749999999999977796e-01  9.16666327712068018663e-01  4.63946665931747048717e-05 7
3.87500000000000011102e-01  4.43749999999999977796e-01  9.23533576019300528337e-01  4.69010145411896672840e-05 7
3.93749999999999988898e-01  4.43749999999999977796e-01  9.30044784552629066887e-01  4.73892813381837640918e-05 7
4.00000000000000022204e-01  4.43749999999999977796e-01  9.36197443117308902849e-01  4.78592786571363504322e-05 7
4.06250000000000000000e-01  4.43749999999999977796e-01  9.41989179746515303826e-01  4.83108251317920789347e-05 7
4.12499999999999977796e-01  4.43749999999999977796e-01  9.47417761615151898802e-01  4.87437470572116282597e-05 7
4.18750000000000011102e-01  4.43749999999999977796e-01  9.52481095901749119648e-01  4.91578773554879333574e-05 7
4.24999999999999988898e-01  4.43749999999999977796e-01  9.57177230594804751007e-01  4.95530561210877351641e-05 7
4.31250000000000022204e-01  4.43749999999999977796e-01  9.61504355244505726219e-01  4.99291314991490153830e-05 7
4.37500000000000000000e-01  4.43749999999999977796e-01  9.65460801662360590392e-01  5.02859580735481870306e-05 7
4.43749999999999977796e-01  4.43749999999999977796e-01  9.69045044562547142064e-01  5.06233986948823044827e-05 7
4.50000000000000011102e-01  4.43749999999999977796e-01  9.72255702151636147512e-01  5.09413228353405855842e-05 7
4.56249999999999988898e-01  4.43749999999999977796e-01  9.75091536659893121097e-01  5.12396080450949753526e-05 7
4.62500000000000022204e-01  4.43749999999999977796e-01  9.77551454818949450143e-01  5.15181395128738728317e-05 7
4.68750000000000000000e-01  4.43749999999999977796e-01  9.79634508283473426360e-01  5.17768099140836213223e-05 7
4.74999999999999977796e-01  4.43749999999999977796e-01  9.81339893997062229225e-01  5.20155191660043314528e-05 7
4.81250000000000011102e-01  4.43749999999999977796e-01  9.82666954500777456438e-01  5.22341755240240956937e-05 7
4.87499999999999988898e-01  4.43749999999999977796e-01  9.83615178187686733935e-01  5.24326945380293452104e-05 7
4.93750000000000022204e-01  4.43749999999999977796e-01  9.84184199499337220018e-01  5.26109998467694239821e-05 7
5.00000000000000000000e-01  4.43749999999999977796e-01  9.84373799067274957153e-01  5.27690226166388498541e-05 7
5.06249999999999977796e-01  4.43749999999999977796e-01  9.84183903797169357119e-01  5.29067020146323230279e-05 7
5.12499999999999955591e-01  4.43749999999999977796e-01  9.83614586897660458931e-01  5.30239845643043494761e-05 7
5.18750000000000044409e-01  4.43749999999999977796e-01  9.82666067850799129779e-01  5.31208255023507547321e-05 7
5.25000000000000022204e-01  4.43749999999999977796e-01  9.81338712328623130610e-01  5.31971876051029468613e-05 7
5.31250000000000000000e-01  4.43749999999999977796e-01  9.79633032052492525033e-01  5.32530408950959710523e-05 7
5.37499999999999977796e-01  4.43749999999999977796e-01  9.77549684594323120557e-01  5.32883641392034590467e-05 7
5.43749999999999955591e-01  4.43749999999999977796e-01  9.75089473124194472398e-01  5.33031437437436750315e-05 7
5.50000000000000044409e-01  4.43749999999999977796e-01  9.72253346100633408788e-01  5.32973738379682870914e-05 7
5.56250000000000022204e-01  4.43749999999999977796e-01  9.69042396904383429579e-01  5.32710568585947896736e-05 7
5.62500000000000000000e-01  4.43749999999999977796e-01  9.65457863417333528311e-01  5.32242031006102678248e-05 7
5.68749999999999977796e-01  4.43749999999999977796e-01  9.61501127545874578750e-01  5.31568301302964840716e-05 7
5.74999999999999955591e-01  4.43749999999999977796e-01  9.57173714686470056279e-01  5.30689644558934858765e-05 7
5.81250000000000044409e-01  4.43749999999999977796e-01  9.52477293139834424451e-01  5.29606392701831296677e-05 7
5.87500000000000022204e-01  4.43749999999999977796e-01  9.47413673464991612505e-01  5.28318972174979251122e-05 7
5.93750000000000000000e-01  4.43749999999999977796e-01  9.41984807784402300435e-01  5.26827872447954703716e-05 7
5.99999999999999977796e-01  4.43749999999999977796e-01  9.36192789028844507548e-01  5.25133671216426733963e-05 7
6.06249999999999955591e-01  4.43749999999999977796e-01  9.30039850132044931819e-01  5.23237019224298549602e-05 7
6.12500000000000044409e-01  4.43749999999999977796e-01  9.23528363168714339082e-01  5.21138651272678998794e-05 7
6.18750000000000022204e-01  4.43749999999999977796e-01  9.16660838441409109301e-01  5.18839372521950892292e-05 7
6.25000000000000000000e-01  4.43749999999999977796e-01  9.09439923511121461885e-01  5.16340074580012853289e-05 7
6.31249999999999977796e-01  4.43749999999999977796e-01  9.01868402178909067679e-01  5.13641712018841900544e-05 7
6.37499999999999955591e-01  4.43749999999999977796e-01  8.93949193408935638416e-01  5.10745339511453622094e-05 7