Titile = 'Poisson'  
VARIABLES = X, Y, U, Error, Rank 
zone N= 966, E = 1600
DATAPACKING=POINT, ZONETYPE=FETRIANGLE
0.00000000000000000000e+00  0.00000000000000000000e+00  0.00000000000000000000e+00  0.00000000000000000000e+00 0
6.25000000000000034694e-03  0.00000000000000000000e+00  0.00000000000000000000e+00  0.00000000000000000000e+00 0
1.25000000000000006939e-02  0.00000000000000000000e+00  0.00000000000000000000e+00  0.00000000000000000000e+00 0
1.87499999999999993061e-02  0.00000000000000000000e+00  0.00000000000000000000e+00  0.00000000000000000000e+00 0
2.50000000000000013878e-02  0.00000000000000000000e+00  0.00000000000000000000e+00  0.00000000000000000000e+00 0
3.12500000000000000000e-02  0.00000000000000000000e+00  0.00000000000000000000e+00  0.00000000000000000000e+00 0
3.74999999999999986122e-02  0.00000000000000000000e+00  0.00000000000000000000e+00  0.00000000000000000000e+00 0
4.37499999999999972244e-02  0.00000000000000000000e+00  0.00000000000000000000e+00  0.00000000000000000000e+00 0
5.00000000000000027756e-02  0.00000000000000000000e+00  0.00000000000000000000e+00  0.00000000000000000000e+00 0
5.62500000000000013878e-02  0.00000000000000000000e+00  0.00000000000000000000e+00  0.00000000000000000000e+00 0
6.25000000000000000000e-02  0.00000000000000000000e+00  0.00000000000000000000e+00  0.00000000000000000000e+00 0
6.87500000000000055511e-02  0.00000000000000000000e+00  0.00000000000000000000e+00  0.00000000000000000000e+00 0
7.49999999999999972244e-02  0.00000000000000000000e+00  0.00000000000000000000e+00  0.00000000000000000000e+00 0
8.12500000000000027756e-02  0.00000000000000000000e+00  0.00000000000000000000e+00  0.00000000000000000000e+00 0
8.74999999999999944489e-02  0.00000000000000000000e+00  0.00000000000000000000e+00  0.00000000000000000000e+00 0
9.37500000000000000000e-02  0.00000000000000000000e+00  0.00000000000000000000e+00  0.00000000000000000000e+00 0
1.00000000000000005551e-01  0.00000000000000000000e+00  0.00000000000000000000e+00  0.00000000000000000000e+00 0
1.06249999999999997224e-01  0.00000000000000000000e+00  0.00000000000000000000e+00  0.00000000000000000000e+00 0
1.12500000000000002776e-01  0.00000000000000000000e+00  0.00000000000000000000e+00  0.00000000000000000000e+00 0
1.18749999999999994449e-01  0.00000000000000000000e+00  0.00000000000000000000e+00  0.00000000000000000000e+00 0
1.25000000000000000000e-01  0.00000000000000000000e+00  0.00000000000000000000e+00  0.00000000000000000000e+00 0
1.31250000000000005551e-01  0.00000000000000000000e+00  0.00000000000000000000e+00  0.00000000000000000000e+00 0
1.37500000000000011102e-01  0.00000000000000000000e+00  0.00000000000000000000e+00  0.00000000000000000000e+00 0
1.43749999999999988898e-01  0.00000000000000000000e+00  0.00000000000000000000e+00  0.00000000000000000000e+00 0
1.49999999999999994449e-01  0.00000000000000000000e+00  0.00000000000000000000e+00  0.00000000000000000000e+00 0
1.56250000000000000000e-01  0.00000000000000000000e+00  0.00000000000000000000e+00  0.00000000000000000000e+00 0
1.62500000000000005551e-01  0.00000000000000000000e+00  0.00000000000000000000e+00  0.00000000000000000000e+00 0
1.68750000000000011102e-01  0.00000000000000000000e+00  0.00000000000000000000e+00  0.00000000000000000000e+00 0
1.74999999999999988898e-01  0.00000000000000000000e+00  0.00000000000000000000e+00  0.00000000000000000000e+00 0
1.81249999999999994449e-01  0.00000000000000000000e+00  0.00000000000000000000e+00  0.00000000000000000000e+00 0
1.87500000000000000000e-01  0.00000000000000000000e+00  0.00000000000000000000e+00  0.00000000000000000000e+00 0
1.93750000000000005551e-01  0.00000000000000000000e+00  0.00000000000000000000e+00  0.00000000000000000000e+00 0
2.00000000000000011102e-01  0.00000000000000000000e+00  0.00000000000000000000e+00  0.00000000000000000000e+00 0
2.06249999999999988898e-01  0.00000000000000000000e+00  0.00000000000000000000e+00  0.00000000000000000000e+00 0
2.12499999999999994449e-01  0.00000000000000000000e+00  0.00000000000000000000e+00  0.00000000000000000000e+00 0
2.18750000000000000000e-01  0.00000000000000000000e+00  0.00000000000000000000e+00  0.00000000000000000000e+00 0
2.25000000000000005551e-01  0.00000000000000000000e+00  0.00000000000000000000e+00  0.00000000000000000000e+00 0
2.31250000000000011102e-01  0.00000000000000000000e+00  0.00000000000000000000e+00  0.00000000000000000000e+00 0
2.37499999999999988898e-01  0.00000000000000000000e+00  0.00000000000000000000e+00  0.00000000000000000000e+00 0
2.43749999999999994449e-01  0.00000000000000000000e+00  0.00000000000000000000e+00  0.00000000000000000000e+00 0
2.50000000000000000000e-01  0.00000000000000000000e+00  0.00000000000000000000e+00  0.00000000000000000000e+00 0
2.56249999999999977796e-01  0.00000000000000000000e+00  0.00000000000000000000e+00  0.00000000000000000000e+00 0
2.62500000000000011102e-01  0.00000000000000000000e+00  0.00000000000000000000e+00  0.00000000000000000000e+00 0
2.68749999999999988898e-01  0.00000000000000000000e+00  0.00000000000000000000e+00  0.00000000000000000000e+00 0
2.75000000000000022204e-01  0.00000000000000000000e+00  0.00000000000000000000e+00  0.00000000000000000000e+00 0
2.81250000000000000000e-01  0.00000000000000000000e+00  0.00000000000000000000e+00  0.00000000000000000000e+00 0
2.87499999999999977796e-01  0.00000000000000000000e+00  0.00000000000000000000e+00  0.00000000000000000000e+00 0
2.93750000000000011102e-01  0.00000000000000000000e+00  0.00000000000000000000e+00  0.00000000000000000000e+00 0
2.99999999999999988898e-01  0.00000000000000000000e+00  0.00000000000000000000e+00  0.00000000000000000000e+00 0
3.06250000000000022204e-01  0.00000000000000000000e+00  0.00000000000000000000e+00  0.00000000000000000000e+00 0
3.12500000000000000000e-01  0.00000000000000000000e+00  0.00000000000000000000e+00  0.00000000000000000000e+00 0
3.18749999999999977796e-01  0.00000000000000000000e+00  0.00000000000000000000e+00  0.00000000000000000000e+00 0
3.25000000000000011102e-01  0.00000000000000000000e+00  0.00000000000000000000e+00  0.00000000000000000000e+00 0
3.31249999999999988898e-01  0.00000000000000000000e+00  0.00000000000000000000e+00  0.00000000000000000000e+00 0
3.37500000000000022204e-01  0.00000000000000000000e+00  0.00000000000000000000e+00  0.00000000000000000000e+00 0
3.43750000000000000000e-01  0.00000000000000000000e+00  0.00000000000000000000e+00  0.00000000000000000000e+00 0
3.49999999999999977796e-01  0.00000000000000000000e+00  0.00000000000000000000e+00  0.00000000000000000000e+00 0
3.56250000000000011102e-01  0.00000000000000000000e+00  0.00000000000000000000e+00  0.00000000000000000000e+00 0
3.62499999999999988898e-01  0.00000000000000000000e+00  0.00000000000000000000e+00  0.00000000000000000000e+00 0
3.68750000000000022204e-01  0.00000000000000000000e+00  0.00000000000000000000e+00  0.00000000000000000000e+00 0
3.75000000000000000000e-01  0.00000000000000000000e+00  0.00000000000000000000e+00  0.00000000000000000000e+00 0
3.81249999999999977796e-01  0.00000000000000000000e+00  0.00000000000000000000e+00  0.00000000000000000000e+00 0
3.87500000000000011102e-01  0.00000000000000000000e+00  0.00000000000000000000e+00  0.00000000000000000000e+00 0
3.93749999999999988898e-01  0.00000000000000000000e+00  0.00000000000000000000e+00  0.00000000000000000000e+00 0
4.00000000000000022204e-01  0.00000000000000000000e+00  0.00000000000000000000e+00  0.00000000000000000000e+00 0
4.06250000000000000000e-01  0.00000000000000000000e+00  0.00000000000000000000e+00  0.00000000000000000000e+00 0
4.12499999999999977796e-01  0.00000000000000000000e+00  0.00000000000000000000e+00  0.00000000000000000000e+00 0
4.18750000000000011102e-01  0.00000000000000000000e+00  0.00000000000000000000e+00  0.00000000000000000000e+00 0
4.24999999999999988898e-01  0.00000000000000000000e+00  0.00000000000000000000e+00  0.00000000000000000000e+00 0
4.31250000000000022204e-01  0.00000000000000000000e+00  0.00000000000000000000e+00  0.00000000000000000000e+00 0
4.37500000000000000000e-01  0.00000000000000000000e+00  0.00000000000000000000e+00  0.00000000000000000000e+00 0
4.43749999999999977796e-01  0.00000000000000000000e+00  0.00000000000000000000e+00  0.00000000000000000000e+00 0
4.50000000000000011102e-01  0.00000000000000000000e+00  0.00000000000000000000e+00  0.00000000000000000000e+00 0
4.56249999999999988898e-01  0.00000000000000000000e+00  0.00000000000000000000e+00  0.00000000000000000000e+00 0
4.62500000000000022204e-01  0.00000000000000000000e+00  0.00000000000000000000e+00  0.00000000000000000000e+00 0
4.68750000000000000000e-01  0.00000000000000000000e+00  0.00000000000000000000e+00  0.00000000000000000000e+00 0
4.74999999999999977796e-01  0.00000000000000000000e+00  0.00000000000000000000e+00  0.00000000000000000000e+00 0
4.81250000000000011102e-01  0.00000000000000000000e+00  0.00000000000000000000e+00  0.00000000000000000000e+00 0
4.87499999999999988898e-01  0.00000000000000000000e+00  0.00000000000000000000e+00  0.00000000000000000000e+00 0
4.93750000000000022204e-01  0.00000000000000000000e+00  0.00000000000000000000e+00  0.00000000000000000000e+00 0
5.00000000000000000000e-01  0.00000000000000000000e+00  0.00000000000000000000e+00  0.00000000000000000000e+00 0
5.06249999999999977796e-01  0.00000000000000000000e+00  0.00000000000000000000e+00  0.00000000000000000000e+00 0
5.12499999999999955591e-01  0.00000000000000000000e+00  0.00000000000000000000e+00  0.00000000000000000000e+00 0
5.18750000000000044409e-01  0.00000000000000000000e+00  0.00000000000000000000e+00  0.00000000000000000000e+00 0
5.25000000000000022204e-01  0.00000000000000000000e+00  0.00000000000000000000e+00  0.00000000000000000000e+00 0
5.31250000000000000000e-01  0.00000000000000000000e+00  0.00000000000000000000e+00  0.00000000000000000000e+00 0
5.37499999999999977796e-01  0.00000000000000000000e+00  0.00000000000000000000e+00  0.00000000000000000000e+00 0
5.43749999999999955591e-01  0.00000000000000000000e+00  0.00000000000000000000e+00  0.00000000000000000000e+00 0
5.50000000000000044409e-01  0.00000000000000000000e+00  0.00000000000000000000e+00  0.00000000000000000000e+00 0
5.56250000000000022204e-01  0.00000000000000000000e+00  0.00000000000000000000e+00  0.00000000000000000000e+00 0
5.62500000000000000000e-01  0.00000000000000000000e+00  0.00000000000000000000e+00  0.00000000000000000000e+00 0
5.68749999999999977796e-01  0.00000000000000000000e+00  0.00000000000000000000e+00  0.00000000000000000000e+00 0
5.74999999999999955591e-01  0.00000000000000000000e+00  0.00000000000000000000e+00  0.00000000000000000000e+00 0
5.81250000000000044409e-01  0.00000000000000000000e+00  0.00000000000000000000e+00  0.00000000000000000000e+00 0
5.87500000000000022204e-01  0.00000000000000000000e+00  0.00000000000000000000e+00  0.00000000000000000000e+00 0
5.93750000000000000000e-01  0.00000000000000000000e+00  0.00000000000000000000e+00  0.00000000000000000000e+00 0
5.99999999999999977796e-01  0.00000000000000000000e+00  0.00000000000000000000e+00  0.00000000000000000000e+00 0
6.06249999999999955591e-01  0.00000000000000000000e+00  0.00000000000000000000e+00  0.00000000000000000000e+00 0
6.12500000000000044409e-01  0.00000000000000000000e+00  0.00000000000000000000e+00  0.00000000000000000000e+00 0
6.18750000000000022204e-01  0.00000000000000000000e+00  0.00000000000000000000e+00  0.00000000000000000000e+00 0
6.25000000000000000000e-01  0.00000000000000000000e+00  0.00000000000000000000e+00  0.00000000000000000000e+00 0
6.31249999999999977796e-01  0.00000000000000000000e+00  0.00000000000000000000e+00  0.00000000000000000000e+00 0
6.37499999999999955591e-01  0.00000000000000000000e+00  0.00000000000000000000e+00  0.00000000000000000000e+00 0
6.43750000000000044409e-01  0.00000000000000000000e+00  0.00000000000000000000e+00  0.00000000000000000000e+00 0
6.50000000000000022204e-01  0.00000000000000000000e+00  0.00000000000000000000e+00  0.00000000000000000000e+00 0
6.56250000000000000000e-01  0.00000000000000000000e+00  0.00000000000000000000e+00  0.00000000000000000000e+00 0
6.62499999999999977796e-01  0.00000000000000000000e+00  0.00000000000000000000e+00  0.00000000000000000000e+00 0
6.68749999999999955591e-01  0.00000000000000000000e+00  0.00000000000000000000e+00  0.00000000000000000000e+00 0
6.75000000000000044409e-01  0.00000000000000000000e+00  0.00000000000000000000e+00  0.00000000000000000000e+00 0
6.81250000000000022204e-01  0.00000000000000000000e+00  0.00000000000000000000e+00  0.00000000000000000000e+00 0
6.87500000000000000000e-01  0.00000000000000000000e+00  0.00000000000000000000e+00  0.00000000000000000000e+00 0
6.93749999999999977796e-01  0.00000000000000000000e+00  0.00000000000000000000e+00  0.00000000000000000000e+00 0
6.99999999999999955591e-01  0.00000000000000000000e+00  0.00000000000000000000e+00  0.00000000000000000000e+00 0
7.06250000000000044409e-01  0.00000000000000000000e+00  0.00000000000000000000e+00  0.00000000000000000000e+00 0
7.12500000000000022204e-01  0.00000000000000000000e+00  0.00000000000000000000e+00  0.00000000000000000000e+00 0
7.18750000000000000000e-01  0.00000000000000000000e+00  0.00000000000000000000e+00  0.00000000000000000000e+00 0
7.24999999999999977796e-01  0.00000000000000000000e+00  0.00000000000000000000e+00  0.00000000000000000000e+00 0
7.31249999999999955591e-01  0.00000000000000000000e+00  0.00000000000000000000e+00  0.00000000000000000000e+00 0
7.37500000000000044409e-01  0.00000000000000000000e+00  0.00000000000000000000e+00  0.00000000000000000000e+00 0
7.43750000000000022204e-01  0.00000000000000000000e+00  0.00000000000000000000e+00  0.00000000000000000000e+00 0
7.50000000000000000000e-01  0.00000000000000000000e+00  0.00000000000000000000e+00  0.00000000000000000000e+00 0
7.56249999999999977796e-01  0.00000000000000000000e+00  0.00000000000000000000e+00  0.00000000000000000000e+00 0
7.62499999999999955591e-01  0.00000000000000000000e+00  0.00000000000000000000e+00  0.00000000000000000000e+00 0
7.68750000000000044409e-01  0.00000000000000000000e+00  0.00000000000000000000e+00  0.00000000000000000000e+00 0
7.75000000000000022204e-01  0.00000000000000000000e+00  0.00000000000000000000e+00  0.00000000000000000000e+00 0
7.81250000000000000000e-01  0.00000000000000000000e+00  0.00000000000000000000e+00  0.00000000000000000000e+00 0
7.87499999999999977796e-01  0.00000000000000000000e+00  0.00000000000000000000e+00  0.00000000000000000000e+00 0
7.93749999999999955591e-01  0.00000000000000000000e+00  0.00000000000000000000e+00  0.00000000000000000000e+00 0
8.00000000000000044409e-01  0.00000000000000000000e+00  0.00000000000000000000e+00  0.00000000000000000000e+00 0
8.06250000000000022204e-01  0.00000000000000000000e+00  0.00000000000000000000e+00  0.00000000000000000000e+00 0
8.12500000000000000000e-01  0.00000000000000000000e+00  0.00000000000000000000e+00  0.00000000000000000000e+00 0
8.18749999999999977796e-01  0.00000000000000000000e+00  0.00000000000000000000e+00  0.00000000000000000000e+00 0
8.24999999999999955591e-01  0.00000000000000000000e+00  0.00000000000000000000e+00  0.00000000000000000000e+00 0
8.31250000000000044409e-01  0.00000000000000000000e+00  0.00000000000000000000e+00  0.00000000000000000000e+00 0
8.37500000000000022204e-01  0.00000000000000000000e+00  0.00000000000000000000e+00  0.00000000000000000000e+00 0
8.43750000000000000000e-01  0.00000000000000000000e+00  0.00000000000000000000e+00  0.00000000000000000000e+00 0
8.49999999999999977796e-01  0.00000000000000000000e+00  0.00000000000000000000e+00  0.00000000000000000000e+00 0
8.56249999999999955591e-01  0.00000000000000000000e+00  0.00000000000000000000e+00  0.00000000000000000000e+00 0
8.62500000000000044409e-01  0.00000000000000000000e+00  0.00000000000000000000e+00  0.00000000000000000000e+00 0
8.68750000000000022204e-01  0.00000000000000000000e+00  0.00000000000000000000e+00  0.00000000000000000000e+00 0
8.75000000000000000000e-01  0.00000000000000000000e+00  0.00000000000000000000e+00  0.00000000000000000000e+00 0
8.81249999999999977796e-01  0.00000000000000000000e+00  0.00000000000000000000e+00  0.00000000000000000000e+00 0
8.87499999999999955591e-01  0.00000000000000000000e+00  0.00000000000000000000e+00  0.00000000000000000000e+00 0
8.93750000000000044409e-01  0.00000000000000000000e+00  0.00000000000000000000e+00  0.00000000000000000000e+00 0
9.00000000000000022204e-01  0.00000000000000000000e+00  0.00000000000000000000e+00  0.00000000000000000000e+00 0
9.06250000000000000000e-01  0.00000000000000000000e+00  0.00000000000000000000e+00  0.00000000000000000000e+00 0
9.12499999999999977796e-01  0.00000000000000000000e+00  0.00000000000000000000e+00  0.00000000000000000000e+00 0
9.18749999999999955591e-01  0.00000000000000000000e+00  0.00000000000000000000e+00  0.00000000000000000000e+00 0
9.25000000000000044409e-01  0.00000000000000000000e+00  0.00000000000000000000e+00  0.00000000000000000000e+00 0
9.31250000000000022204e-01  0.00000000000000000000e+00  0.00000000000000000000e+00  0.00000000000000000000e+00 0
9.37500000000000000000e-01  0.00000000000000000000e+00  0.00000000000000000000e+00  0.00000000000000000000e+00 0
9.43749999999999977796e-01  0.00000000000000000000e+00  0.00000000000000000000e+00  0.00000000000000000000e+00 0
9.49999999999999955591e-01  0.00000000000000000000e+00  0.00000000000000000000e+00  0.00000000000000000000e+00 0
9.56250000000000044409e-01  0.00000000000000000000e+00  0.00000000000000000000e+00  0.00000000000000000000e+00 0
9.62500000000000022204e-01  0.00000000000000000000e+00  0.00000000000000000000e+00  0.00000000000000000000e+00 0
9.68750000000000000000e-01  0.00000000000000000000e+00  0.00000000000000000000e+00  0.00000000000000000000e+00 0
9.74999999999999977796e-01  0.00000000000000000000e+00  0.00000000000000000000e+00  0.00000000000000000000e+00 0
9.81249999999999955591e-01  0.00000000000000000000e+00  0.00000000000000000000e+00  0.00000000000000000000e+00 0
9.87500000000000044409e-01  0.00000000000000000000e+00  0.00000000000000000000e+00  0.00000000000000000000e+00 0
9.93750000000000022204e-01  0.00000000000000000000e+00  0.00000000000000000000e+00  0.00000000000000000000e+00 0
1.00000000000000000000e+00  0.00000000000000000000e+00  0.00000000000000000000e+00  0.00000000000000000000e+00 0
0.00000000000000000000e+00  6.25000000000000034694e-03  0.00000000000000000000e+00  0.00000000000000000000e+00 0
6.25000000000000034694e-03  6.25000000000000034694e-03  3.85983611688001798656e-04  5.01732049469248101575e-07 0
1.25000000000000006939e-02  6.25000000000000034694e-03  7.92432420352314945654e-04  2.16172716778334755156e-05 0
1.87499999999999993061e-02  6.25000000000000034694e-03  1.17742700352006920625e-03  2.15757497225900225085e-05 0
2.50000000000000013878e-02  6.25000000000000034694e-03  1.56196766616462372375e-03  2.15259099051203200287e-05 0
3.12500000000000000000e-02  6.25000000000000034694e-03  1.94590616054045578015e-03  2.14677714396155870646e-05 0
3.74999999999999986122e-02  6.25000000000000034694e-03  2.32909447104938599829e-03  2.14013567395670255278e-05 0
4.37499999999999972244e-02  6.25000000000000034694e-03  2.71138487130337174288e-03  2.13266914090874323828e-05 0
5.00000000000000027756e-02  6.25000000000000034694e-03  3.09262998107592054081e-03  2.12438042331182519451e-05 0
5.62500000000000013878e-02  6.25000000000000034694e-03  3.47268282311984696070e-03  2.11527271662087339166e-05 0
6.25000000000000000000e-02  6.25000000000000034694e-03  3.85139687982991897608e-03  2.10534953203143221367e-05 0
6.87500000000000055511e-02  6.25000000000000034694e-03  4.22862614972814316455e-03  2.09461469512194076170e-05 0
7.49999999999999972244e-02  6.25000000000000034694e-03  4.60422520375004546561e-03  2.08307234437253921411e-05 0
8.12500000000000027756e-02  6.25000000000000034694e-03  4.97804924131050111069e-03  2.07072692958443216327e-05 0
8.74999999999999944489e-02  6.25000000000000034694e-03  5.34995414612687153477e-03  2.05758321014087169898e-05 0
9.37500000000000000000e-02  6.25000000000000034694e-03  5.71979654177892822553e-03  2.04364625320712159362e-05 0
1.00000000000000005551e-01  6.25000000000000034694e-03  6.08743384698283169360e-03  2.02892143174090294755e-05 0
1.06249999999999997224e-01  6.25000000000000034694e-03  6.45272433055908440497e-03  2.01341442243666013390e-05 0
1.12500000000000002776e-01  6.25000000000000034694e-03  6.81552716607270164112e-03  1.99713120354726852979e-05 0
1.18749999999999994449e-01  6.25000000000000034694e-03  7.17570248612430395402e-03  1.98007805256158672669e-05 0
1.25000000000000000000e-01  6.25000000000000034694e-03  7.53311143627177336873e-03  1.96226154379501235847e-05 0
1.31250000000000005551e-01  6.25000000000000034694e-03  7.88761622856120822589e-03  1.94368854584802547292e-05 0
1.37500000000000011102e-01  6.25000000000000034694e-03  8.23908019464692810419e-03  1.92436621897027620998e-05 0
1.43749999999999988898e-01  6.25000000000000034694e-03  8.58736783847951698490e-03  1.90430201228008327829e-05 0
1.49999999999999994449e-01  6.25000000000000034694e-03  8.93234488854237167199e-03  1.88350366091584453532e-05 0
1.56250000000000000000e-01  6.25000000000000034694e-03  9.27387834961573322146e-03  1.86197918303609294410e-05 0
1.62500000000000005551e-01  6.25000000000000034694e-03  9.61183655404895115337e-03  1.83973687673481128835e-05 0
1.68750000000000011102e-01  6.25000000000000034694e-03  9.94608921252094872745e-03  1.81678531685040833832e-05 0
1.74999999999999988898e-01  6.25000000000000034694e-03  1.02765074642690423107e-02  1.79313335164094783680e-05 0
1.81249999999999994449e-01  6.25000000000000034694e-03  1.06029639267672583930e-02  1.76879009937680464759e-05 0
1.87500000000000000000e-01  6.25000000000000034694e-03  1.09253327448352432344e-02  1.74376494487711586334e-05 0
1.93750000000000005551e-01  6.25000000000000034694e-03  1.12434896391567801938e-02  1.71806753578758464318e-05 0
2.00000000000000011102e-01  6.25000000000000034694e-03  1.15573119541928712173e-02  1.69170777896375523763e-05 0
2.06249999999999988898e-01  6.25000000000000034694e-03  1.18666787054671450663e-02  1.66469583658974268348e-05 0
2.12499999999999994449e-01  6.25000000000000034694e-03  1.21714706262078843635e-02  1.63704212227978873617e-05 0
2.18750000000000000000e-01  6.25000000000000034694e-03  1.24715702133276797048e-02  1.60875729706862202750e-05 0
2.25000000000000005551e-01  6.25000000000000034694e-03  1.27668617727230079839e-02  1.57985226529166328246e-05 0
2.31250000000000011102e-01  6.25000000000000034694e-03  1.30572314638766357603e-02  1.55033817039358645662e-05 0
2.37499999999999988898e-01  6.25000000000000034694e-03  1.33425673437451743075e-02  1.52022639061874520472e-05 0
2.43749999999999994449e-01  6.25000000000000034694e-03  1.36227594099153238166e-02  1.48952853463203693796e-05 0
2.50000000000000000000e-01  6.25000000000000034694e-03  1.38976996430119036086e-02  1.45825643704418361768e-05 0
2.56249999999999977796e-01  6.25000000000000034694e-03  1.41672820483412387899e-02  1.42642215383501080872e-05 0
2.62500000000000011102e-01  6.25000000000000034694e-03  1.44314026967544885988e-02  1.39403795774151184617e-05 0
2.68749999999999988898e-01  6.25000000000000034694e-03  1.46899597647137235973e-02  1.36111633346827631819e-05 0
2.75000000000000022204e-01  6.25000000000000034694e-03  1.49428535735475175039e-02  1.32766997294059274637e-05 0
2.81250000000000000000e-01  6.25000000000000034694e-03  1.51899866278786283696e-02  1.29371177037939516508e-05 0
2.87499999999999977796e-01  6.25000000000000034694e-03  1.54312636532097768177e-02  1.25925481727403448806e-05 0
2.93750000000000011102e-01  6.25000000000000034694e-03  1.56665916326554841009e-02  1.22431239750579734515e-05 0
2.99999999999999988898e-01  6.25000000000000034694e-03  1.58958798427991758462e-02  1.18889798196020191057e-05 0
3.06250000000000022204e-01  6.25000000000000034694e-03  1.61190398886719293836e-02  1.15302522364774118202e-05 0
3.12500000000000000000e-01  6.25000000000000034694e-03  1.63359857378272792239e-02  1.11670795212605311608e-05 0
3.18749999999999977796e-01  6.25000000000000034694e-03  1.65466337535113798551e-02  1.07996016847043685427e-05 0
3.25000000000000011102e-01  6.25000000000000034694e-03  1.67509027269035458418e-02  1.04279603957320443630e-05 0
3.31249999999999988898e-01  6.25000000000000034694e-03  1.69487139084268795264e-02  1.00522989299224596582e-05 0
3.37500000000000022204e-01  6.25000000000000034694e-03  1.71399910381044955077e-02  9.67276211102235938810e-06 0
3.43750000000000000000e-01  6.25000000000000034694e-03  1.73246603749629968227e-02  9.28949625892197539123e-06 0
3.49999999999999977796e-01  6.25000000000000034694e-03  1.75026507254560717564e-02  8.90264912828744869877e-06 0
3.56250000000000011102e-01  6.25000000000000034694e-03  1.76738934709172700044e-02  8.51236985791731237683e-06 0
3.62499999999999988898e-01  6.25000000000000034694e-03  1.78383225940065663628e-02  8.11880890601301974385e-06 0
3.68750000000000022204e-01  6.25000000000000034694e-03  1.79958747041681597911e-02  7.72211799900113238238e-06 0
3.75000000000000000000e-01  6.25000000000000034694e-03  1.81464890620646815411e-02  7.32245006903123329955e-06 0
3.81249999999999977796e-01  6.25000000000000034694e-03  1.82901076029926140665e-02  6.91995919421817262673e-06 0
3.87500000000000011102e-01  6.25000000000000034694e-03  1.84266749592725508078e-02  6.51480054448053125249e-06 0
3.93749999999999988898e-01  6.25000000000000034694e-03  1.85561384815868743448e-02  6.10713031410151097056e-06 0
4.00000000000000022204e-01  6.25000000000000034694e-03  1.86784482592852255078e-02  5.69710566965253573102e-06 0
4.06250000000000000000e-01  6.25000000000000034694e-03  1.87935571396183540016e-02  5.28488468177004677706e-06 0
4.12499999999999977796e-01  6.25000000000000034694e-03  1.89014207459228464336e-02  4.87062627064355213591e-06 0
4.18750000000000011102e-01  6.25000000000000034694e-03  1.90019974947249099817e-02  4.45449014049165148421e-06 0
4.24999999999999988898e-01  6.25000000000000034694e-03  1.90952486117728671700e-02  4.03663671926304812310e-06 0
4.31250000000000022204e-01  6.25000000000000034694e-03  1.91811381469865066540e-02  3.61722709793510510679e-06 0
4.37500000000000000000e-01  6.25000000000000034694e-03  1.92596329883149980366e-02  3.19642296688071869681e-06 0
4.43749999999999977796e-01  6.25000000000000034694e-03  1.93307028745020210991e-02  2.77438655332459815916e-06 0
4.50000000000000011102e-01  6.25000000000000034694e-03  1.93943204067548932712e-02  2.35128056165836984981e-06 0
4.56249999999999988898e-01  6.25000000000000034694e-03  1.94504610593025061005e-02  1.92726810589391450712e-06 0
4.62500000000000022204e-01  6.25000000000000034694e-03  1.94991031888558860596e-02  1.50251265217116181105e-06 0
4.68750000000000000000e-01  6.25000000000000034694e-03  1.95402280429470311118e-02  1.07717795068407173886e-06 0
4.74999999999999977796e-01  6.25000000000000034694e-03  1.95738197671629157726e-02  6.51427977133717250879e-07 0
4.81250000000000011102e-01  6.25000000000000034694e-03  1.95998654112533865490e-02  2.25426865219785499406e-07 0
4.87499999999999988898e-01  6.25000000000000034694e-03  1.96183549341277865818e-02  2.00661152575942747234e-07 0
4.93750000000000022204e-01  6.25000000000000034694e-03  1.96292812077221434652e-02  6.26671812158086094513e-07 0
5.00000000000000000000e-01  6.25000000000000034694e-03  1.96326400197504823131e-02  1.05244087781827810879e-06 0
5.06249999999999977796e-01  6.25000000000000034694e-03  1.96284300753272258899e-02  1.47780420707566140237e-06 0
5.12499999999999955591e-01  6.25000000000000034694e-03  1.96166529974656431157e-02  1.90259781471940891961e-06 0
5.18750000000000044409e-01  6.25000000000000034694e-03  1.95973133264532410613e-02  2.32665793492570216472e-06 0
5.25000000000000022204e-01  6.25000000000000034694e-03  1.95704185181014359007e-02  2.74982108434615457604e-06 0
5.31250000000000000000e-01  6.25000000000000034694e-03  1.95359789408712757053e-02  3.17192412507480425710e-06 0
5.37499999999999977796e-01  6.25000000000000034694e-03  1.94940078718750728348e-02  3.59280432864206300536e-06 0
5.43749999999999955591e-01  6.25000000000000034694e-03  1.94445214917587198833e-02  4.01229943789230270035e-06 0
5.50000000000000044409e-01  6.25000000000000034694e-03  1.93875388784637107953e-02  4.43024772952063661258e-06 0
5.56250000000000022204e-01  6.25000000000000034694e-03  1.93230819998727633424e-02  4.84648807593315855691e-06 0
5.62500000000000000000e-01  6.25000000000000034694e-03  1.92511757053389492844e-02  5.26086000916803353533e-06 0
5.68749999999999977796e-01  6.25000000000000034694e-03  1.91718477161082236082e-02  5.67320378034794070565e-06 0
5.74999999999999955591e-01  6.25000000000000034694e-03  1.90851286146292362100e-02  6.08336042436791180066e-06 0
5.81250000000000044409e-01  6.25000000000000034694e-03  1.89910518327682520390e-02  6.49117181616629124186e-06 0
5.87500000000000022204e-01  6.25000000000000034694e-03  1.88896536389140563827e-02  6.89648073814649875679e-06 0
5.93750000000000000000e-01  6.25000000000000034694e-03  1.87809731240012774134e-02  7.29913093530654144558e-06 0
5.99999999999999977796e-01  6.25000000000000034694e-03  1.86650521864367043012e-02  7.69896717886867087977e-06 0
6.06249999999999955591e-01  6.25000000000000034694e-03  1.85419355159488971618e-02  8.09583532387914139861e-06 0
6.12500000000000044409e-01  6.25000000000000034694e-03  1.84116705763579906197e-02  8.48958237007618743419e-06 0
6.18750000000000022204e-01  6.25000000000000034694e-03  1.82743075872777299695e-02  8.88005652066592432448e-06 0
6.25000000000000000000e-01  6.25000000000000034694e-03  1.81298995047547845116e-02  9.26710724086579618053e-06 0
6.31249999999999977796e-01  6.25000000000000034694e-03  1.79785020008544869918e-02  9.65058531467166691442e-06 0
6.37499999999999955591e-01  6.25000000000000034694e-03  1.78201734421971381972e-02  1.00303429034186153412e-05 0