Titile = 'Poisson'  
VARIABLES = X, Y, U, Error 
zone N= 2121, E = 4000
DATAPACKING=POINT, ZONETYPE=FETRIANGLE
0.00000000000000000000e+00  2.00000000000000011102e-01  0.00000000000000000000e+00  0.00000000000000000000e+00
1.00000000000000002082e-02  2.00000000000000011102e-01  1.85054354935568002305e-02  4.26545441210707254598e-05
2.00000000000000004163e-02  2.00000000000000011102e-01  3.69908147386293004177e-02  8.34733755163755142270e-05
2.99999999999999988898e-02  2.00000000000000011102e-01  5.53962057743677127597e-02  8.07270876256663272308e-05
4.00000000000000008327e-02  2.00000000000000011102e-01  7.37469274430712778967e-02  7.79011318452343948238e-05
5.00000000000000027756e-02  2.00000000000000011102e-01  9.20248697979641760991e-02  7.49982970539991855574e-05
5.99999999999999977796e-02  2.00000000000000011102e-01  1.10211994716661987326e-01  7.20214479965758380686e-05
7.00000000000000066613e-02  2.00000000000000011102e-01  1.28290353702631809707e-01  6.89735224671805813301e-05
8.00000000000000016653e-02  2.00000000000000011102e-01  1.46242105598175686776e-01  6.58575283948303891179e-05
8.99999999999999966693e-02  2.00000000000000011102e-01  1.64049534191522489168e-01  6.26765408979768068320e-05
1.00000000000000005551e-01  2.00000000000000011102e-01  1.81695065700558350263e-01  5.94336992181532242085e-05
1.10000000000000000555e-01  2.00000000000000011102e-01  1.99161286116063346308e-01  5.61322036571054727716e-05
1.19999999999999995559e-01  2.00000000000000011102e-01  2.16430958387199251503e-01  5.27753123820140501721e-05
1.30000000000000004441e-01  2.00000000000000011102e-01  2.33487039432438592268e-01  4.93663382505338255157e-05
1.40000000000000013323e-01  2.00000000000000011102e-01  2.50312696958985447804e-01  4.59086454986934455746e-05
1.49999999999999994449e-01  2.00000000000000011102e-01  2.66891326074259249701e-01  4.24056464637945218499e-05
1.60000000000000003331e-01  2.00000000000000011102e-01  2.83206565672868393335e-01  3.88607981657851375701e-05
1.70000000000000012212e-01  2.00000000000000011102e-01  2.99242314583101964853e-01  3.52775989522768895768e-05
1.79999999999999993339e-01  2.00000000000000011102e-01  3.14982747456824085930e-01  3.16595850272660683800e-05
1.90000000000000002220e-01  2.00000000000000011102e-01  3.30412330387101382811e-01  2.80103268813225447786e-05
2.00000000000000011102e-01  2.00000000000000011102e-01  3.45515836238486528931e-01  2.43334259602545621703e-05
2.09999999999999992228e-01  2.00000000000000011102e-01  3.60278359674103598742e-01  2.06325108524918476860e-05
2.20000000000000001110e-01  2.00000000000000011102e-01  3.74685331865671766849e-01  1.69112339634125419252e-05
2.30000000000000009992e-01  2.00000000000000011102e-01  3.88722534871003500001e-01  1.31732677348117555027e-05
2.39999999999999991118e-01  2.00000000000000011102e-01  4.02376115665447786629e-01  9.42230107120467508253e-06
2.50000000000000000000e-01  2.00000000000000011102e-01  4.15632599813181735637e-01  5.66203572832657542335e-06
2.60000000000000008882e-01  2.00000000000000011102e-01  4.28478904764847179365e-01  1.89618265494795323889e-06
2.70000000000000017764e-01  2.00000000000000011102e-01  4.40902352768387961746e-01  1.87154172859305134580e-06
2.80000000000000026645e-01  2.00000000000000011102e-01  4.52890683380529901481e-01  5.63741912901205566300e-06
2.89999999999999980016e-01  2.00000000000000011102e-01  4.64432065566326102157e-01  9.39773308122893169525e-06
2.99999999999999988898e-01  2.00000000000000011102e-01  4.75515109374986866264e-01  1.31487725899548379971e-05
3.09999999999999997780e-01  2.00000000000000011102e-01  4.86128877180321272711e-01  1.68868358556006903370e-05
3.20000000000000006661e-01  2.00000000000000011102e-01  4.96262894474918336840e-01  2.06082338640722895207e-05
3.30000000000000015543e-01  2.00000000000000011102e-01  5.05907160207230366389e-01  2.43092940174216565197e-05
3.40000000000000024425e-01  2.00000000000000011102e-01  5.15052156651322978753e-01  2.79863638389388214023e-05
3.49999999999999977796e-01  2.00000000000000011102e-01  5.23688858799770895480e-01  3.16358145284745262416e-05
3.59999999999999986677e-01  2.00000000000000011102e-01  5.31808743270380079871e-01  3.52540444140680975238e-05
3.69999999999999995559e-01  2.00000000000000011102e-01  5.39403796717382699732e-01  3.88374828603765820390e-05
3.80000000000000004441e-01  2.00000000000000011102e-01  5.46466523740021026256e-01  4.23825934139365756437e-05
3.90000000000000013323e-01  2.00000000000000011102e-01  5.52989954279456297215e-01  4.58858774392556512112e-05
4.00000000000000022204e-01  2.00000000000000011102e-01  5.58967650497281920430e-01  4.93438776655308330987e-05
4.09999999999999975575e-01  2.00000000000000011102e-01  5.64393713129076712853e-01  5.27531814140669297331e-05
4.19999999999999984457e-01  2.00000000000000011102e-01  5.69262787306067941095e-01  5.61104241656451563358e-05
4.29999999999999993339e-01  2.00000000000000011102e-01  5.73570067839922703712e-01  5.94122926973472686996e-05
4.40000000000000002220e-01  2.00000000000000011102e-01  5.77311303964795463628e-01  6.26555284466423501044e-05
4.50000000000000011102e-01  2.00000000000000011102e-01  5.80482803532246571798e-01  6.58369308006445663750e-05
4.60000000000000019984e-01  2.00000000000000011102e-01  5.83081436655172979933e-01  6.89533600289893300328e-05
4.69999999999999973355e-01  2.00000000000000011102e-01  5.85104638796421716584e-01  7.20017405898554230248e-05
4.79999999999999982236e-01  2.00000000000000011102e-01  5.86550413299689821223e-01  7.49790641533243373829e-05
4.89999999999999991118e-01  2.00000000000000011102e-01  5.87417333360124582775e-01  7.78823924290072966414e-05
5.00000000000000000000e-01  2.00000000000000011102e-01  5.87704543432296278027e-01  8.07088601768590763186e-05
5.10000000000000008882e-01  2.00000000000000011102e-01  5.87411760074503130902e-01  8.34556780504591699810e-05
5.20000000000000017764e-01  2.00000000000000011102e-01  5.86539272228639219087e-01  8.61201352039264733662e-05
5.30000000000000026645e-01  2.00000000000000011102e-01  5.85087940934799877191e-01  8.86996022116948168446e-05
5.40000000000000035527e-01  2.00000000000000011102e-01  5.83059198481785001533e-01  9.11915334169677294085e-05
5.50000000000000044409e-01  2.00000000000000011102e-01  5.80455046993464618410e-01  9.35934695824869322678e-05
5.60000000000000053291e-01  2.00000000000000011102e-01  5.77278056452937837761e-01  9.59030403042682166870e-05
5.69999999999999951150e-01  2.00000000000000011102e-01  5.73531362166324498730e-01  9.81179662955522502443e-05
5.79999999999999960032e-01  2.00000000000000011102e-01  5.69218661668566827672e-01  1.00236061666869602504e-04
5.89999999999999968914e-01  2.00000000000000011102e-01  5.64344211074270796225e-01  1.02255236220094580801e-04
5.99999999999999977796e-01  2.00000000000000011102e-01  5.58912820877789595642e-01  1.04173497157855621253e-04
6.09999999999999986677e-01  2.00000000000000011102e-01  5.52929851205499645062e-01  1.05988951395907804454e-04
6.19999999999999995559e-01  2.00000000000000011102e-01  5.46401206526014759923e-01  1.07699807420202908759e-04
6.30000000000000004441e-01  2.00000000000000011102e-01  5.39333329823612706022e-01  1.09304376630481314692e-04
6.40000000000000013323e-01  2.00000000000000011102e-01  5.31733196239064453970e-01  1.10801075729582976237e-04
6.50000000000000022204e-01  2.00000000000000011102e-01  5.23608306186831851115e-01  1.12188427467518891945e-04
6.60000000000000031086e-01  2.00000000000000011102e-01  5.14966677952379825456e-01  1.13465062781981096407e-04
6.70000000000000039968e-01  2.00000000000000011102e-01  5.05816839779402172006e-01  1.14629721845616039388e-04
6.80000000000000048850e-01  2.00000000000000011102e-01  4.96167821453693203004e-01  1.15681255089150614168e-04
6.89999999999999946709e-01  2.00000000000000011102e-01  4.86029145391160821710e-01  1.16618625016218224744e-04
6.99999999999999955591e-01  2.00000000000000011102e-01  4.75410817241211036688e-01  1.17440906365784414334e-04
7.09999999999999964473e-01  2.00000000000000011102e-01  4.64323316011614140031e-01  1.18147287793357591568e-04
7.19999999999999973355e-01  2.00000000000000011102e-01  4.52777583727629662214e-01  1.18737072029251322647e-04
7.29999999999999982236e-01  2.00000000000000011102e-01  4.40785014632965654879e-01  1.19209677151010939866e-04
7.39999999999999991118e-01  2.00000000000000011102e-01  4.28357443945487748049e-01  1.19564636704427851299e-04
7.50000000000000000000e-01  2.00000000000000011102e-01  4.15507136177074243300e-01  1.19801600379221273585e-04
7.60000000000000008882e-01  2.00000000000000011102e-01  4.02246773029957260803e-01  1.19920334419432172979e-04
7.70000000000000017764e-01  2.00000000000000011102e-01  3.88589440881798420246e-01  1.19920721470267999109e-04
7.80000000000000026645e-01  2.00000000000000011102e-01  3.74548617870418043552e-01  1.19802761290421777574e-04
7.90000000000000035527e-01  2.00000000000000011102e-01  3.60138160592994249765e-01  1.19566570256857129806e-04
8.00000000000000044409e-01  2.00000000000000011102e-01  3.45372290431122497267e-01  1.19212381403888123543e-04
8.10000000000000053291e-01  2.00000000000000011102e-01  3.30265579515789442500e-01  1.18740544430562255940e-04
8.19999999999999951150e-01  2.00000000000000011102e-01  3.14832936347022251944e-01  1.18151524774789962180e-04
8.29999999999999960032e-01  2.00000000000000011102e-01  2.99089591080306860249e-01  1.17445903842938736972e-04
8.39999999999999968914e-01  2.00000000000000011102e-01  2.83051080496664941855e-01  1.16624378037832876487e-04
8.49999999999999977796e-01  2.00000000000000011102e-01  2.66733232669824738004e-01  1.15687757970772686633e-04
8.59999999999999986677e-01  2.00000000000000011102e-01  2.50152151345341355881e-01  1.14636968145509499095e-04
8.69999999999999995559e-01  2.00000000000000011102e-01  2.33324200048787344652e-01  1.13473045400713790087e-04
8.80000000000000004441e-01  2.00000000000000011102e-01  2.16265985936343135831e-01  1.12197138474212643189e-04
8.90000000000000013323e-01  2.00000000000000011102e-01  1.98994343405849566375e-01  1.10810506556618948437e-04
9.00000000000000022204e-01  2.00000000000000011102e-01  1.81526317483351962156e-01  1.09314517988318149477e-04
9.10000000000000031086e-01  2.00000000000000011102e-01  1.63879147001373876025e-01  1.07710649250525314358e-04
9.20000000000000039968e-01  2.00000000000000011102e-01  1.46070247586726126299e-01  1.06000483054730088028e-04
9.30000000000000048850e-01  2.00000000000000011102e-01  1.28117194472956080764e-01  1.04185707208409583657e-04
9.39999999999999946709e-01  2.00000000000000011102e-01  1.10037705156025261699e-01  1.02268112640399588820e-04
9.49999999999999955591e-01  2.00000000000000011102e-01  9.18496219091268634171e-02  1.00249591783369007558e-04
9.59999999999999964473e-01  2.00000000000000011102e-01  7.35708941745339684015e-02  9.81321366922416338241e-05
9.69999999999999973355e-01  2.00000000000000011102e-01  5.52195608497129675207e-02  9.59178370290997284187e-05
9.79999999999999982236e-01  2.00000000000000011102e-01  3.68137324850733443915e-02  9.36088780396984732057e-05
9.89999999999999991118e-01  2.00000000000000011102e-01  1.84150561521883478211e-02  4.77247972473469894705e-05
1.00000000000000000000e+00  2.00000000000000011102e-01  0.00000000000000000000e+00  7.19829327805996632341e-17
0.00000000000000000000e+00  2.09999999999999992228e-01  0.00000000000000000000e+00  0.00000000000000000000e+00
1.00000000000000002082e-02  2.09999999999999992228e-01  1.92933684097451388362e-02  4.14926101660467727683e-05
2.00000000000000004163e-02  2.09999999999999992228e-01  3.85659447939933827665e-02  8.11924719422499330257e-05
2.99999999999999988898e-02  2.09999999999999992228e-01  5.77579922924250158123e-02  7.83432521232543810363e-05
4.00000000000000008327e-02  2.09999999999999992228e-01  7.68930396256710946279e-02  7.54167169730451947274e-05
5.00000000000000027756e-02  2.09999999999999992228e-01  9.59522028122157255581e-02  7.24157546282827579986e-05
5.99999999999999977796e-02  2.09999999999999992228e-01  1.14916672759034554918e-01  6.93433266766019240634e-05
7.00000000000000066613e-02  2.09999999999999992228e-01  1.33767733823897061463e-01  6.62024652321735462834e-05
8.00000000000000016653e-02  2.09999999999999992228e-01  1.52486782285453759123e-01  6.29962699514596824457e-05
8.99999999999999966693e-02  2.09999999999999992228e-01  1.71055344702840228521e-01  5.97279049511234561010e-05
1.00000000000000005551e-01  2.09999999999999992228e-01  1.89455096146774304433e-01  5.64005957269242408358e-05
1.10000000000000000555e-01  2.09999999999999992228e-01  2.07667878283995160915e-01  5.30176259167236541003e-05
1.19999999999999995559e-01  2.09999999999999992228e-01  2.25675717297404904160e-01  4.95823341190859689931e-05
1.30000000000000004441e-01  2.09999999999999992228e-01  2.43460841623995144500e-01  4.60981105372681998489e-05
1.40000000000000013323e-01  2.09999999999999992228e-01  2.61005699493290277413e-01  4.25683936899901027573e-05
1.49999999999999994449e-01  2.09999999999999992228e-01  2.78292976248777468307e-01  3.89966669695485101954e-05
1.60000000000000003331e-01  2.09999999999999992228e-01  2.95305611435435322321e-01  3.53864552568028400970e-05
1.70000000000000012212e-01  2.09999999999999992228e-01  3.12026815636284593491e-01  3.17413213847261843625e-05
1.79999999999999993339e-01  2.09999999999999992228e-01  3.28440087041539652279e-01  2.80648626453938732084e-05
1.90000000000000002220e-01  2.09999999999999992228e-01  3.44529227733961385116e-01  2.43607072993867745936e-05
2.00000000000000011102e-01  2.09999999999999992228e-01  3.60278359674103598742e-01  2.06325108524918476860e-05
2.09999999999999992228e-01  2.09999999999999992228e-01  3.75671940370195023284e-01  1.68839526225594838138e-05
2.20000000000000001110e-01  2.09999999999999992228e-01  3.90694778216563454176e-01  1.31187319690750925361e-05
2.30000000000000009992e-01  2.09999999999999992228e-01  4.05332047485973512302e-01  9.34056470014432704829e-06
2.39999999999999991118e-01  2.09999999999999992228e-01  4.19569302960863699248e-01  5.55317943923272494544e-06
2.50000000000000000000e-01  2.09999999999999992228e-01  4.33392494188935772925e-01  1.76031384907515686677e-06
2.60000000000000008882e-01  2.09999999999999992228e-01  4.46787979349362263104e-01  2.03428894934853943255e-06
2.70000000000000017764e-01  2.09999999999999992228e-01  4.59742538715523285653e-01  5.82688416428389643897e-06
2.80000000000000026645e-01  2.09999999999999992228e-01  4.72243387701374806031e-01  9.61372893465428646209e-06
2.89999999999999980016e-01  2.09999999999999992228e-01  4.84278189478183407335e-01  1.33910861320196694635e-05
2.99999999999999988898e-01  2.09999999999999992228e-01  4.95835067149613117898e-01  1.71552279225051229616e-05
3.09999999999999997780e-01  2.09999999999999992228e-01  5.06902615472628492732e-01  2.09024396048418381611e-05
3.20000000000000006661e-01  2.09999999999999992228e-01  5.17469912113314167712e-01  2.46290230556667211204e-05
3.30000000000000015543e-01  2.09999999999999992228e-01  5.27526528425598884020e-01  2.83313006788077359488e-05
3.40000000000000024425e-01  2.09999999999999992228e-01  5.37062539743397904246e-01  3.20056187080863807637e-05
3.49999999999999977796e-01  2.09999999999999992228e-01  5.46068535174832225820e-01  3.56483510397520575452e-05
3.59999999999999986677e-01  2.09999999999999992228e-01  5.54535626889660848704e-01  3.92559027942995797389e-05
3.69999999999999995559e-01  2.09999999999999992228e-01  5.62455458890662951532e-01  4.28247136960990815169e-05
3.80000000000000004441e-01  2.09999999999999992228e-01  5.69820215259837170585e-01  4.63512617491224077071e-05
3.90000000000000013323e-01  2.09999999999999992228e-01  5.76622627871729798166e-01  4.98320667513540982441e-05
4.00000000000000022204e-01  2.09999999999999992228e-01  5.82855983566459068257e-01  5.32636934673647033378e-05
4.09999999999999975575e-01  2.09999999999999992228e-01  5.88514130774418831038e-01  5.66427553936321714900e-05
4.19999999999999984457e-01  2.09999999999999992228e-01  5.93591485587496858756e-01  5.99659177384914698905e-05
4.29999999999999993339e-01  2.09999999999999992228e-01  5.98083037269480310982e-01  6.32299009504233566759e-05
4.40000000000000002220e-01  2.09999999999999992228e-01  6.01984353201088340235e-01  6.64314839147195357327e-05
4.50000000000000011102e-01  2.09999999999999992228e-01  6.05291583254582876705e-01  6.95675069803947110358e-05
4.60000000000000019984e-01  2.09999999999999992228e-01  6.08001463593115465400e-01  7.26348753438132987981e-05
4.69999999999999973355e-01  2.09999999999999992228e-01  6.10111319891961323414e-01  7.56305618812014301966e-05
4.79999999999999982236e-01  2.09999999999999992228e-01  6.11619069977780371872e-01  7.85516101107219810729e-05
4.89999999999999991118e-01  2.09999999999999992228e-01  6.12523225883120803203e-01  8.13951374605270672191e-05
5.00000000000000000000e-01  2.09999999999999992228e-01  6.12822895315362936586e-01  8.41583376134380500844e-05
5.10000000000000008882e-01  2.09999999999999992228e-01  6.12517782536978860897e-01  8.68384836024693740342e-05
5.20000000000000017764e-01  2.09999999999999992228e-01  6.11608188657312035197e-01  8.94329305790586559510e-05
5.30000000000000026645e-01  2.09999999999999992228e-01  6.10095011335890946569e-01  9.19391179515782752674e-05
5.40000000000000035527e-01  2.09999999999999992228e-01  6.07979743895876501014e-01  9.43545725827776848860e-05
5.50000000000000044409e-01  2.09999999999999992228e-01  6.05264473850927298137e-01  9.66769106359732788292e-05
5.60000000000000053291e-01  2.09999999999999992228e-01  6.01951880844790121472e-01  9.89038402129382987482e-05
5.69999999999999951150e-01  2.09999999999999992228e-01  5.98045234006737147503e-01  1.01033163693697858321e-04
5.79999999999999960032e-01  2.09999999999999992228e-01  5.93548388725614328720e-01  1.03062779621132527552e-04
5.89999999999999968914e-01  2.09999999999999992228e-01  5.88465782844818652286e-01  1.04990684993921945534e-04
5.99999999999999977796e-01  2.09999999999999992228e-01  5.82802432282673921193e-01  1.06814977252622789194e-04
6.09999999999999986677e-01  2.09999999999999992228e-01  5.76563926082427569142e-01  1.08533856053583122048e-04
6.19999999999999995559e-01  2.09999999999999992228e-01  5.69756420896578519297e-01  1.10145625007773695359e-04
6.30000000000000004441e-01  2.09999999999999992228e-01  5.62386634910780114360e-01  1.11648693579047275648e-04
6.40000000000000013323e-01  2.09999999999999992228e-01  5.54461841214162531877e-01  1.13041578292505384695e-04
6.50000000000000022204e-01  2.09999999999999992228e-01  5.45989860621213018987e-01  1.14322904658958890423e-04
6.60000000000000031086e-01  2.09999999999999992228e-01  5.36979053953974383440e-01  1.15491408131496164913e-04
6.70000000000000039968e-01  2.09999999999999992228e-01  5.27438313790778323664e-01  1.16545935499368091826e-04
6.80000000000000048850e-01  2.09999999999999992228e-01  5.17377055690242282360e-01  1.17485446127441051090e-04
6.89999999999999946709e-01  2.09999999999999992228e-01  5.06805208899470449602e-01  1.18309012763107013200e-04
6.99999999999999955591e-01  2.09999999999999992228e-01  4.95733206554761718365e-01  1.19015822773904655918e-04
7.09999999999999964473e-01  2.09999999999999992228e-01  4.84171975385914665768e-01  1.19605178400872258493e-04
7.19999999999999973355e-01  2.09999999999999992228e-01  4.72132924932007203012e-01  1.20076498302257306250e-04
7.29999999999999982236e-01  2.09999999999999992228e-01  4.59627936282607452156e-01  1.20429317080228415193e-04
7.39999999999999991118e-01  2.09999999999999992228e-01  4.46669350351588001491e-01  1.20663286723554641355e-04
7.50000000000000000000e-01  2.09999999999999992228e-01  4.33269955698793451937e-01  1.20778176293301342525e-04
7.60000000000000008882e-01  2.09999999999999992228e-01  4.19442975909130266743e-01  1.20773872294310802289e-04
7.70000000000000017764e-01  2.09999999999999992228e-01  4.05202056542094735114e-01  1.20650379178632860544e-04
7.80000000000000026645e-01  2.09999999999999992228e-01  3.90561251665991426840e-01  1.20407818603063265783e-04
7.90000000000000035527e-01  2.09999999999999992228e-01  3.75535009987479795335e-01  1.20046430092668465761e-04
8.00000000000000044409e-01  2.09999999999999992228e-01  3.60138160592957612405e-01  1.19566570293550000770e-04
8.10000000000000053291e-01  2.09999999999999992228e-01  3.44385898314046312585e-01  1.18968712615630245466e-04
8.19999999999999951150e-01  2.09999999999999992228e-01  3.28293768731602264577e-01  1.18253447292215874143e-04
8.29999999999999960032e-01  2.09999999999999992228e-01  3.11877652834883889454e-01  1.17421480016088874976e-04
8.39999999999999968914e-01  2.09999999999999992228e-01  2.95153751348240789287e-01  1.16473631937896726640e-04
8.49999999999999977796e-01  2.09999999999999992228e-01  2.78138568743320935273e-01  1.15410838487095546157e-04
8.59999999999999986677e-01  2.09999999999999992228e-01  2.60848896951207220862e-01  1.14234148393177470382e-04
8.69999999999999995559e-01  2.09999999999999992228e-01  2.43301798790389656180e-01  1.12944723068220120865e-04
8.80000000000000004441e-01  2.09999999999999992228e-01  2.25514591128405550435e-01  1.11543834880406533827e-04
8.90000000000000013323e-01  2.09999999999999992228e-01  2.07504827791665791281e-01  1.10032866412590468741e-04
9.00000000000000022204e-01  2.09999999999999992228e-01  1.89290282242230517573e-01  1.08413308816945885837e-04
9.10000000000000031086e-01  2.09999999999999992228e-01  1.70888930037570607734e-01  1.06686760318414064486e-04
9.20000000000000039968e-01  2.09999999999999992228e-01  1.52318931090576925591e-01  1.04854924925401604696e-04
9.30000000000000048850e-01  2.09999999999999992228e-01  1.33598611748330375892e-01  1.02919610334373246019e-04
9.39999999999999946709e-01  2.09999999999999992228e-01  1.14746446705812688016e-01  1.00882726545514778138e-04
9.49999999999999955591e-01  2.09999999999999992228e-01  9.57810407739174002328e-02  9.87462836701119561766e-05
9.59999999999999964473e-01  2.09999999999999992228e-01  7.67211105185571784482e-02  9.65123901410375184540e-05
9.69999999999999973355e-01  2.09999999999999992228e-01  5.75854657897713964609e-02  9.41832505303927258744e-05
9.79999999999999982236e-01  2.09999999999999992228e-01  3.83929911586302907711e-02  9.17611634209669624340e-05
9.89999999999999991118e-01  2.09999999999999992228e-01  1.92050962348782917888e-02  4.67795647007655801541e-05
1.00000000000000000000e+00  2.09999999999999992228e-01  0.00000000000000000000e+00  7.50594661430952620860e-17
0.00000000000000000000e+00  2.20000000000000001110e-01  0.00000000000000000000e+00  0.00000000000000000000e+00
1.00000000000000002082e-02  2.20000000000000001110e-01  2.00622611006297350833e-02  4.02897280143282854326e-05
2.00000000000000004163e-02  2.20000000000000001110e-01  4.01030149179687697703e-02  7.88314412008273013299e-05
2.99999999999999988898e-02  2.20000000000000001110e-01  6.00627786452971879072e-02  7.58821012900520730504e-05
4.00000000000000008327e-02  2.20000000000000001110e-01  7.99632676615689985677e-02  7.28578749057962049562e-05
5.00000000000000027756e-02  2.20000000000000001110e-01  9.97848425867426946922e-02  6.97617465968275451971e-05
5.99999999999999977796e-02  2.20000000000000001110e-01  1.19507941919450841328e-01  6.65967718639359773647e-05
7.00000000000000066613e-02  2.20000000000000001110e-01  1.39113101341856337800e-01  6.33660741606589805741e-05
8.00000000000000016653e-02  2.20000000000000001110e-01  1.58580972928562075053e-01  6.00728417888829469007e-05
8.99999999999999966693e-02  2.20000000000000001110e-01  1.77892344240703076386e-01  5.67203247778258479173e-05
1.00000000000000005551e-01  2.20000000000000001110e-01  1.97028157286280813931e-01  5.33118316534686442765e-05
1.10000000000000000555e-01  2.20000000000000001110e-01  2.15969527328115418197e-01  4.98507261883773811206e-05
1.19999999999999995559e-01  2.20000000000000001110e-01  2.34697761520790082468e-01  4.63404240709786030550e-05
1.30000000000000004441e-01  2.20000000000000001110e-01  2.53194377358255895416e-01  4.27843895577928456930e-05
1.40000000000000013323e-01  2.20000000000000001110e-01  2.71441120913785027824e-01  3.91861320057640405423e-05
1.49999999999999994449e-01  2.20000000000000001110e-01  2.89419984854469902746e-01  3.55492024865511346832e-05
1.60000000000000003331e-01  2.20000000000000001110e-01  3.07113226212189172060e-01  3.18771901838266202844e-05
1.70000000000000012212e-01  2.20000000000000001110e-01  3.24503383893873176280e-01  2.81737189500308460310e-05
1.79999999999999993339e-01  2.20000000000000001110e-01  3.41573295913427443793e-01  2.44424436622314722456e-05
1.90000000000000002220e-01  2.20000000000000001110e-01  3.58306116328539758786e-01  2.06870466144537523689e-05
2.00000000000000011102e-01  2.20000000000000001110e-01  3.74685331865671711338e-01  1.69112339633570307740e-05
2.09999999999999992228e-01  2.20000000000000001110e-01  3.90694778216563454176e-01  1.31187319690750925361e-05
2.20000000000000001110e-01  2.20000000000000001110e-01  4.06318655990497379360e-01  9.31328335979086929797e-06
2.30000000000000009992e-01  2.20000000000000001110e-01  4.21541546306432257651e-01  5.49864368198926811715e-06
2.39999999999999991118e-01  2.20000000000000001110e-01  4.36348426009465106823e-01  1.67857748151201136011e-06
2.50000000000000000000e-01  2.20000000000000001110e-01  4.50724682497028072969e-01  2.14314525470715722122e-06
2.60000000000000008882e-01  2.20000000000000001110e-01  4.64656128139608604055e-01  5.96275297359838418743e-06
2.70000000000000017764e-01  2.20000000000000001110e-01  4.78129014282333730801e-01  9.77647617095289689360e-06
2.80000000000000026645e-01  2.20000000000000001110e-01  4.91130044813191002362e-01  1.35805511533027001292e-05
2.89999999999999980016e-01  2.20000000000000001110e-01  5.03646389284634232730e-01  1.73712238035195198904e-05
2.99999999999999988898e-01  2.20000000000000001110e-01  5.15665695575840854481e-01  2.11447531313080361315e-05
3.09999999999999997780e-01  2.20000000000000001110e-01  5.27176102082596909071e-01  2.48974151316749825469e-05
3.20000000000000006661e-01  2.20000000000000001110e-01  5.38166249423303599819e-01  2.86255064252394220148e-05
3.30000000000000015543e-01  2.20000000000000001110e-01  5.48625291649493807000e-01  3.23253477343410366984e-05
3.40000000000000024425e-01  2.20000000000000001110e-01  5.58542906949077266887e-01  3.59932879107072167812e-05
3.49999999999999977796e-01  2.20000000000000001110e-01  5.67909307833265875054e-01  3.96257069958938501486e-05
3.59999999999999986677e-01  2.20000000000000001110e-01  5.76715250795110323523e-01  4.32190203267790451491e-05
3.69999999999999995559e-01  2.20000000000000001110e-01  5.84952045432117873069e-01  4.67696816806029147529e-05
3.80000000000000004441e-01  2.20000000000000001110e-01  5.92611563022399034928e-01  5.02741870063161400140e-05
3.90000000000000013323e-01  2.20000000000000001110e-01  5.99686244546814961609e-01  5.37290778024335224927e-05
4.00000000000000022204e-01  2.20000000000000001110e-01  6.06169108148881030651e-01  5.71309444653556042226e-05
4.09999999999999975575e-01  2.20000000000000001110e-01  6.12053756024876105535e-01  6.04764297950088902667e-05
4.19999999999999984457e-01  2.20000000000000001110e-01  6.17334380737834864661e-01  6.37622321750797027562e-05
4.29999999999999993339e-01  2.20000000000000001110e-01  6.22005770948695912992e-01  6.69851089225570461849e-05
4.40000000000000002220e-01  2.20000000000000001110e-01  6.26063316559268390193e-01  7.01418794837316283974e-05
4.50000000000000011102e-01  2.20000000000000001110e-01  6.29503013261952459878e-01  7.32294284628842717666e-05
4.60000000000000019984e-01  2.20000000000000001110e-01  6.32321466491351236172e-01  7.62447088528128702478e-05
4.69999999999999973355e-01  2.20000000000000001110e-01  6.34515894774473676598e-01  7.91847448653459906609e-05
4.79999999999999982236e-01  2.20000000000000001110e-01  6.36084132475389862904e-01  8.20466351909576729895e-05
4.89999999999999991118e-01  2.20000000000000001110e-01  6.37024631933022056351e-01  8.48275552920441100468e-05
5.00000000000000000000e-01  2.20000000000000001110e-01  6.37336464987802608917e-01  8.75247608870255433544e-05
5.10000000000000008882e-01  2.20000000000000001110e-01  6.37019323898171618836e-01  9.01355901424816252643e-05
5.20000000000000017764e-01  2.20000000000000001110e-01  6.36073521644231476557e-01  9.26574663493440198181e-05
5.30000000000000026645e-01  2.20000000000000001110e-01  6.34499991618371561586e-01  9.50879009674610031766e-05
5.40000000000000035527e-01  2.20000000000000001110e-01  6.32300286705010039512e-01  9.74244951938985082052e-05
5.50000000000000044409e-01  2.20000000000000001110e-01  6.29476577747179355526e-01  9.96649432359886233712e-05
5.60000000000000053291e-01  2.20000000000000001110e-01  6.26031651404708511244e-01  1.01807034043610578067e-04
5.69999999999999951150e-01  2.20000000000000001110e-01  6.21968907404073179102e-01  1.03848653545401958809e-04
5.79999999999999960032e-01  2.20000000000000001110e-01  6.17292355183028385035e-01  1.05787786981670350883e-04
5.89999999999999968914e-01  2.20000000000000001110e-01  6.12006609933966716497e-01  1.07622520704397928171e-04
5.99999999999999977796e-01  2.20000000000000001110e-01  6.06116888049450075471e-01  1.09351043896421806778e-04
6.09999999999999986677e-01  2.20000000000000001110e-01  5.99629001973740360931e-01  1.10971650877034200278e-04
6.19999999999999995559e-01  2.20000000000000001110e-01  5.92549354467173383654e-01  1.12482742231967414170e-04
6.30000000000000004441e-01  2.20000000000000001110e-01  5.84884932287173198162e-01  1.13882826625388844377e-04
6.40000000000000013323e-01  2.20000000000000001110e-01  5.76643299292890265662e-01  1.15170522546836906486e-04
6.50000000000000022204e-01  2.20000000000000001110e-01  5.67832588981309172027e-01  1.16344558952596877077e-04
6.60000000000000031086e-01  2.20000000000000001110e-01  5.58461496459599193720e-01  1.17403777388669361414e-04