Titile = 'Poisson'  
VARIABLES = X, Y, U, Error 
zone N= 2121, E = 4000
DATAPACKING=POINT, ZONETYPE=FETRIANGLE
0.00000000000000000000e+00  4.00000000000000022204e-01  0.00000000000000000000e+00  0.00000000000000000000e+00
1.00000000000000002082e-02  4.00000000000000022204e-01  2.98865661003477091351e-02  1.31589973166486295941e-05
2.00000000000000004163e-02  4.00000000000000022204e-01  5.97429526671504965152e-02  2.56199072389134974159e-05
2.99999999999999988898e-02  4.00000000000000022204e-01  8.95237712233338256418e-02  2.14466042148114821586e-05
4.00000000000000008327e-02  4.00000000000000022204e-01  1.19216240625653627228e-01  1.72521359796118378682e-05
5.00000000000000027756e-02  4.00000000000000022204e-01  1.48791057991628644652e-01  1.30406419706907694689e-05
5.99999999999999977796e-02  4.00000000000000022204e-01  1.78219036547126730152e-01  8.81627842125309868493e-06
7.00000000000000066613e-02  4.00000000000000022204e-01  2.07471134430200099263e-01  4.58321427160290895131e-06
8.00000000000000016653e-02  4.00000000000000022204e-01  2.36518483351883690435e-01  3.45627042069862611129e-07
8.99999999999999966693e-02  4.00000000000000022204e-01  2.65332417085717309213e-01  3.89230128383655227253e-06
1.00000000000000005551e-01  4.00000000000000022204e-01  2.93884499757868067338e-01  8.12638836844570278117e-06
1.10000000000000000555e-01  4.00000000000000022204e-01  3.22146553909850197339e-01  1.23524557021914560551e-05
1.19999999999999995559e-01  4.00000000000000022204e-01  3.50090688306357089576e-01  1.65663326444076552946e-05
1.30000000000000004441e-01  4.00000000000000022204e-01  3.77689325460468128259e-01  2.07638606149473936568e-05
1.40000000000000013323e-01  4.00000000000000022204e-01  4.04915228849330954830e-01  2.49408971655373790099e-05
1.49999999999999994449e-01  4.00000000000000022204e-01  4.31741529793325695685e-01  2.90933200634557742603e-05
1.60000000000000003331e-01  4.00000000000000022204e-01  4.58141753972202525613e-01  3.32170313655510973661e-05
1.70000000000000012212e-01  4.00000000000000022204e-01  4.84089847552042984447e-01  3.73079614580662521917e-05
1.79999999999999993339e-01  4.00000000000000022204e-01  5.09560202897210712258e-01  4.13620731113395478928e-05
1.90000000000000002220e-01  4.00000000000000022204e-01  5.34527683842061951403e-01  4.53753653978372639699e-05
2.00000000000000011102e-01  4.00000000000000022204e-01  5.58967650497282031452e-01  4.93438776654198107963e-05
2.09999999999999992228e-01  4.00000000000000022204e-01  5.82855983566458957235e-01  5.32636934674757256403e-05
2.20000000000000001110e-01  4.00000000000000022204e-01  6.06169108148881030651e-01  5.71309444653556042226e-05
2.30000000000000009992e-01  4.00000000000000022204e-01  6.28884017005255424593e-01  6.09418141066520036020e-05
2.39999999999999991118e-01  4.00000000000000022204e-01  6.50978293262949203601e-01  6.46925415188626118379e-05
2.50000000000000000000e-01  4.00000000000000022204e-01  6.72430132538736957670e-01  6.83794252203107078003e-05
2.60000000000000008882e-01  4.00000000000000022204e-01  6.93218364457165447945e-01  7.19988267019466832153e-05
2.70000000000000017764e-01  4.00000000000000022204e-01  7.13322473543181567734e-01  7.55471739947166653906e-05
2.80000000000000026645e-01  4.00000000000000022204e-01  7.32722619468272218235e-01  7.90209653517282006874e-05
2.89999999999999980016e-01  4.00000000000000022204e-01  7.51399656630597378992e-01  8.24167725805846629328e-05
2.99999999999999988898e-01  4.00000000000000022204e-01  7.69335153049370168432e-01  8.57312444432212217293e-05
3.09999999999999997780e-01  4.00000000000000022204e-01  7.86511408555167546020e-01  8.89611097921738647187e-05
3.20000000000000006661e-01  4.00000000000000022204e-01  8.02911472257235803163e-01  9.21031814246076052655e-05
3.30000000000000015543e-01  4.00000000000000022204e-01  8.18519159273012553157e-01  9.51543581870772925413e-05
3.40000000000000024425e-01  4.00000000000000022204e-01  8.33319066699491184380e-01  9.81116291975947518722e-05
3.49999999999999977796e-01  4.00000000000000022204e-01  8.47296588815058537847e-01  1.00972075783967163431e-04
3.59999999999999986677e-01  4.00000000000000022204e-01  8.60437931492670227129e-01  1.03732875274431535217e-04
3.69999999999999995559e-01  4.00000000000000022204e-01  8.72730125814048074417e-01  1.06391302721609015691e-04
3.80000000000000004441e-01  4.00000000000000022204e-01  8.84161040867072256511e-01  1.08944734958038580430e-04
3.90000000000000013323e-01  4.00000000000000022204e-01  8.94719395718858612199e-01  1.11390651852283362189e-04
4.00000000000000022204e-01  4.00000000000000022204e-01  9.04394770547937376648e-01  1.13726639536237961181e-04
4.09999999999999975575e-01  4.00000000000000022204e-01  9.13177616927125845869e-01  1.15950393020702868796e-04
4.19999999999999984457e-01  4.00000000000000022204e-01  9.21059267247959612135e-01  1.18059717183593981815e-04
4.29999999999999993339e-01  4.00000000000000022204e-01  9.28031943272810799783e-01  1.20052530700909265704e-04
4.40000000000000002220e-01  4.00000000000000022204e-01  9.34088763812112365947e-01  1.21926867058252952347e-04
4.50000000000000011102e-01  4.00000000000000022204e-01  9.39223751515718241478e-01  1.23680876034537590158e-04
4.60000000000000019984e-01  4.00000000000000022204e-01  9.43431838770157349394e-01  1.25312827196744080993e-04
4.69999999999999973355e-01  4.00000000000000022204e-01  9.46708872701856662957e-01  1.26821109507568863251e-04
4.79999999999999982236e-01  4.00000000000000022204e-01  9.49051619273564739387e-01  1.28204234876472256133e-04
4.89999999999999991118e-01  4.00000000000000022204e-01  9.50457766477550980433e-01  1.29460838033335079444e-04
5.00000000000000000000e-01  4.00000000000000022204e-01  9.50925926616236427691e-01  1.30589678917103491074e-04
5.10000000000000008882e-01  4.00000000000000022204e-01  9.50455637671899777885e-01  1.31589643684537627166e-04
5.20000000000000017764e-01  4.00000000000000022204e-01  9.49047363763149132154e-01  1.32459745292079489332e-04
5.30000000000000026645e-01  4.00000000000000022204e-01  9.46702494686174733651e-01  1.33199125189498168709e-04
5.40000000000000035527e-01  4.00000000000000022204e-01  9.43423344543787290029e-01  1.33807053566692424340e-04
5.50000000000000044409e-01  4.00000000000000022204e-01  9.39213149461259111384e-01  1.34282930493556662555e-04
5.60000000000000053291e-01  4.00000000000000022204e-01  9.34076064392673099945e-01  1.34626286497518954377e-04
5.69999999999999951150e-01  4.00000000000000022204e-01  9.28017159021051418755e-01  1.34836782460401316541e-04
5.79999999999999960032e-01  4.00000000000000022204e-01  9.21042412754092154614e-01  1.34914211051162524768e-04
5.89999999999999968914e-01  4.00000000000000022204e-01  9.13158708824915121838e-01  1.34858495231537922621e-04
5.99999999999999977796e-01  4.00000000000000022204e-01  9.04373827496734783438e-01  1.34669690738942193775e-04
6.09999999999999986677e-01  4.00000000000000022204e-01  8.94696438387394321623e-01  1.34347983316573937884e-04
6.19999999999999995559e-01  4.00000000000000022204e-01  8.84136091911395416432e-01  1.33893690634878659296e-04
6.30000000000000004441e-01  4.00000000000000022204e-01  8.72703209855683947893e-01  1.33307261085846562310e-04
6.40000000000000013323e-01  4.00000000000000022204e-01  8.60409075094524355976e-01  1.32589273420191666730e-04
6.50000000000000022204e-01  4.00000000000000022204e-01  8.47265820454730644862e-01  1.31740436111971170874e-04
6.60000000000000031086e-01  4.00000000000000022204e-01  8.33286416741768842797e-01  1.30761586919714289934e-04
6.70000000000000039968e-01  4.00000000000000022204e-01  8.18484659939522574135e-01  1.29653691677056315257e-04
6.80000000000000048850e-01  4.00000000000000022204e-01  8.02875157594463151334e-01  1.28417844197148411922e-04
6.89999999999999946709e-01  4.00000000000000022204e-01  7.86473314401459289158e-01  1.27055263500652770858e-04
6.99999999999999955591e-01  4.00000000000000022204e-01  7.69295316998984679557e-01  1.25567294828710096510e-04
7.09999999999999964473e-01  4.00000000000000022204e-01  7.51358117996988927878e-01  1.23955406189257821836e-04
7.19999999999999973355e-01  4.00000000000000022204e-01  7.32679419245011787076e-01  1.22221188612159359366e-04
7.29999999999999982236e-01  4.00000000000000022204e-01  7.13277654363542623628e-01  1.20366353633771794307e-04
7.39999999999999991118e-01  4.00000000000000022204e-01  6.93171970552585503533e-01  1.18392731281780072550e-04
7.50000000000000000000e-01  4.00000000000000022204e-01  6.72382209693983656784e-01  1.16302269973722616214e-04
7.60000000000000008882e-01  4.00000000000000022204e-01  6.50928888772472125090e-01  1.14097031996163167378e-04
7.70000000000000017764e-01  4.00000000000000022204e-01  6.28833179625150173742e-01  1.11779194211902854761e-04
7.80000000000000026645e-01  4.00000000000000022204e-01  6.06116888049388458093e-01  1.09351043958150206947e-04
7.90000000000000035527e-01  4.00000000000000022204e-01  5.82802432282685356491e-01  1.06814977241076469738e-04
8.00000000000000044409e-01  4.00000000000000022204e-01  5.58912820877795590846e-01  1.04173497151971439223e-04
8.10000000000000053291e-01  4.00000000000000022204e-01  5.34471629997101738141e-01  1.01429210357939503240e-04
8.19999999999999951150e-01  4.00000000000000022204e-01  5.09502980145205008888e-01  9.85848251173759848598e-05
8.29999999999999960032e-01  4.00000000000000022204e-01  4.84031512364779481494e-01  9.56431487216802267426e-05
8.39999999999999968914e-01  4.00000000000000022204e-01  4.58082363919674218078e-01  9.26070838941361884622e-05
8.49999999999999977796e-01  4.00000000000000022204e-01  4.31681143486203233728e-01  8.94796271860287539823e-05
8.59999999999999986677e-01  4.00000000000000022204e-01  4.04853905881702391678e-01  8.62638647942670644397e-05
8.69999999999999995559e-01  4.00000000000000022204e-01  3.77627126350623398832e-01  8.29629704596768213776e-05
8.80000000000000004441e-01  4.00000000000000022204e-01  3.50027674437297597887e-01  7.95802017041213893833e-05
8.90000000000000013323e-01  4.00000000000000022204e-01  3.22082787468750963988e-01  7.61188968013692957015e-05
9.00000000000000022204e-01  4.00000000000000022204e-01  2.93820043674414499435e-01  7.25824718221246278915e-05
9.10000000000000031086e-01  4.00000000000000022204e-01  2.65267334970356871704e-01  6.89744166441075279295e-05
9.20000000000000039968e-01  4.00000000000000022204e-01  2.36452839432742617509e-01  6.52982920990308191023e-05
9.30000000000000048850e-01  4.00000000000000022204e-01  2.07404993489927080841e-01  6.15577260011657134697e-05
9.39999999999999946709e-01  4.00000000000000022204e-01  1.78152463858859522183e-01  5.77564098463434483222e-05
9.49999999999999955591e-01  4.00000000000000022204e-01  1.48724119254541986557e-01  5.38980951160783483544e-05
9.59999999999999964473e-01  4.00000000000000022204e-01  1.19149001900230047668e-01  4.99865894442313996038e-05
9.69999999999999973355e-01  4.00000000000000022204e-01  8.94562988660545649333e-02  4.60257530644908596784e-05
9.79999999999999982236e-01  4.00000000000000022204e-01  5.96753132650937462289e-02  4.20194948180310778874e-05
9.89999999999999991118e-01  4.00000000000000022204e-01  2.98520442638277594405e-02  2.13628392032490233010e-05
1.00000000000000000000e+00  4.00000000000000022204e-01  0.00000000000000000000e+00  1.16470831848909234536e-16
0.00000000000000000000e+00  4.09999999999999975575e-01  0.00000000000000000000e+00  0.00000000000000000000e+00
1.00000000000000002082e-02  4.09999999999999975575e-01  3.01749955911102193951e-02  1.14419860639085324561e-05
2.00000000000000004163e-02  4.09999999999999975575e-01  6.03195935719940887210e-02  2.22541476196866372383e-05
2.99999999999999988898e-02  4.09999999999999975575e-01  9.03896682874562040766e-02  1.80492379795588187008e-05
4.00000000000000008327e-02  4.09999999999999975575e-01  1.20370539313194330200e-01  1.38265159194544962062e-05
5.00000000000000027756e-02  4.09999999999999975575e-01  1.50232619149145318893e-01  9.59014876114605563373e-06
5.99999999999999977796e-02  4.09999999999999975575e-01  1.79946437527793323685e-01  5.34431727713946536085e-06
7.00000000000000066613e-02  4.09999999999999975575e-01  2.09482670497806250376e-01  1.09321160532416250533e-06
8.00000000000000016653e-02  4.09999999999999975575e-01  2.38812169363179005455e-01  3.15897294247968751790e-06
8.99999999999999966693e-02  4.09999999999999975575e-01  2.67905989449539194691e-01  7.40803995907812762312e-06
1.00000000000000005551e-01  4.09999999999999975575e-01  2.96735418668992168012e-01  1.16497961372141745073e-05
1.10000000000000000555e-01  4.09999999999999975575e-01  3.25272005855527845952e-01  1.58800553653470899462e-05
1.19999999999999995559e-01  4.09999999999999975575e-01  3.53487588842827937796e-01  2.00946429174120311245e-05
1.30000000000000004441e-01  4.09999999999999975575e-01  3.81354322257036637556e-01  2.42893994603088358986e-05
1.40000000000000013323e-01  4.09999999999999975575e-01  4.08844704996628061089e-01  2.84601853133281679220e-05
1.49999999999999994449e-01  4.09999999999999975575e-01  4.35931607372824103663e-01  3.26028843824488490100e-05
1.60000000000000003331e-01  4.09999999999999975575e-01  4.62588297883181676085e-01  3.67134083633646746136e-05
1.70000000000000012212e-01  4.09999999999999975575e-01  4.88788469592496832572e-01  4.07877006362578065080e-05
1.79999999999999993339e-01  4.09999999999999975575e-01  5.14506266094492903385e-01  4.48217403514750145632e-05
1.90000000000000002220e-01  4.09999999999999975575e-01  5.39716307028924258127e-01  4.88115464439831114873e-05
2.00000000000000011102e-01  4.09999999999999975575e-01  5.64393713129076490809e-01  5.27531814142889743380e-05
2.09999999999999992228e-01  4.09999999999999975575e-01  5.88514130774419053083e-01  5.66427553934101268851e-05
2.20000000000000001110e-01  4.09999999999999975575e-01  6.12053756024875994513e-01  6.04764297951199125691e-05
2.30000000000000009992e-01  4.09999999999999975575e-01  6.34989358112311386151e-01  6.42504212323702361687e-05
2.39999999999999991118e-01  4.09999999999999975575e-01  6.57298302366436382194e-01  6.79610053087031928953e-05
2.50000000000000000000e-01  4.09999999999999975575e-01  6.78958572552717520843e-01  7.16045200718218310953e-05
2.60000000000000008882e-01  4.09999999999999975575e-01  6.99948792599609403986e-01  7.51773697601487711495e-05
2.70000000000000017764e-01  4.09999999999999975575e-01  7.20248247693957788229e-01  7.86760285502730027929e-05
2.80000000000000026645e-01  4.09999999999999975575e-01  7.39836904724529675903e-01  8.20970435261303421726e-05
2.89999999999999980016e-01  4.09999999999999975575e-01  7.58695432051663010142e-01  8.54370386991210040151e-05
2.99999999999999988898e-01  4.09999999999999975575e-01  7.76805218585886469995e-01  8.86927177143892464528e-05
3.09999999999999997780e-01  4.09999999999999975575e-01  7.94148392154054416636e-01  9.18608678671661849080e-05
3.20000000000000006661e-01  4.09999999999999975575e-01  8.10707837137977338493e-01  9.49383623199961945716e-05
3.30000000000000015543e-01  4.09999999999999975575e-01  8.26467211364472875701e-01  9.79221641869143510917e-05
3.40000000000000024425e-01  4.09999999999999975575e-01  8.41410962234104942148e-01  1.00809328542506015935e-04
3.49999999999999977796e-01  4.09999999999999975575e-01  8.55524342068594401134e-01  1.03597006455569129457e-04
3.59999999999999986677e-01  4.09999999999999975575e-01  8.68793422666404580035e-01  1.06282446393990426259e-04
3.69999999999999995559e-01  4.09999999999999975575e-01  8.81205109046470869139e-01  1.08862998662528909222e-04
3.80000000000000004441e-01  4.09999999999999975575e-01  8.92747152373360219890e-01  1.11336116024762787902e-04
3.90000000000000013323e-01  4.09999999999999975575e-01  9.03408162043344620251e-01  1.13699358264773842109e-04
4.00000000000000022204e-01  4.09999999999999975575e-01  9.13177616927126178936e-01  1.15950393020369801889e-04
4.09999999999999975575e-01  4.09999999999999975575e-01  9.22045875752537158476e-01  1.18086998470157134022e-04
4.19999999999999984457e-01  4.09999999999999975575e-01  9.30004186618237804751e-01  1.20107066599595135870e-04
4.29999999999999993339e-01  4.09999999999999975575e-01  9.37044695632726964973e-01  1.22008603340439947260e-04
4.40000000000000002220e-01  4.09999999999999975575e-01  9.43160454663335534597e-01  1.23789732388246420669e-04
4.50000000000000011102e-01  4.09999999999999975575e-01  9.48345428194239059572e-01  1.25448696009500260118e-04
4.60000000000000019984e-01  4.09999999999999975575e-01  9.52594499282760409642e-01  1.26983856798990046855e-04
4.69999999999999973355e-01  4.09999999999999975575e-01  9.55903474608620240538e-01  1.28393699849627118681e-04
4.79999999999999982236e-01  4.09999999999999975575e-01  9.58269088612643371583e-01  1.29676833842906624739e-04
4.89999999999999991118e-01  4.09999999999999975575e-01  9.59689006719374404497e-01  1.30831992517843609392e-04
5.00000000000000000000e-01  4.09999999999999975575e-01  9.60161827641190068761e-01  1.31858035752885349723e-04
5.10000000000000008882e-01  4.09999999999999975575e-01  9.59687084760802333605e-01  1.32753951089914501438e-04
5.20000000000000017764e-01  4.09999999999999975575e-01  9.58265246592309383189e-01  1.33518854176895018782e-04
5.30000000000000026645e-01  4.09999999999999975575e-01  9.55897716318132251168e-01  1.34151990337616489057e-04
5.40000000000000035527e-01  4.09999999999999975575e-01  9.52586830404813178497e-01  1.34652734746110169795e-04
5.50000000000000044409e-01  4.09999999999999975575e-01  9.48335856297135904036e-01  1.35020593112544773362e-04
5.60000000000000053291e-01  4.09999999999999975575e-01  9.43148989193311915180e-01  1.35255202411865838030e-04
5.69999999999999951150e-01  4.09999999999999975575e-01  9.37031347904754841061e-01  1.35356331312674882383e-04
5.79999999999999960032e-01  4.09999999999999975575e-01  9.29988969805306542327e-01  1.35323879530968582685e-04
5.89999999999999968914e-01  4.09999999999999975575e-01  9.22028804871174334501e-01  1.35157879833092131605e-04
5.99999999999999977796e-01  4.09999999999999975575e-01  9.13158708824863496467e-01  1.34858495283163293266e-04
6.09999999999999986677e-01  4.09999999999999975575e-01  9.03387435379800818325e-01  1.34426021808575768546e-04
6.19999999999999995559e-01  4.09999999999999975575e-01  8.92724627603131759557e-01  1.33860886253223121400e-04
6.30000000000000004441e-01  4.09999999999999975575e-01  8.81180808399323778346e-01  1.33163645809730724068e-04
6.40000000000000013323e-01  4.09999999999999975575e-01  8.68767370123603055454e-01  1.32334989195403984752e-04
6.50000000000000022204e-01  4.09999999999999975575e-01  8.55496563341176741169e-01  1.31375733873340116986e-04
6.60000000000000031086e-01  4.09999999999999975575e-01  8.41381484736259843693e-01  1.30286826387382426162e-04
6.70000000000000039968e-01  4.09999999999999975575e-01  8.26436064186736429882e-01  1.29069341923360170199e-04
6.80000000000000048850e-01  4.09999999999999975575e-01  8.10675051019195014312e-01  1.27724481102209352912e-04
6.89999999999999946709e-01  4.09999999999999975575e-01  7.94113999449803653619e-01  1.26253572118151247139e-04
6.99999999999999955591e-01  4.09999999999999975575e-01  7.76769253237933998690e-01  1.24658065666860551346e-04
7.09999999999999964473e-01  4.09999999999999975575e-01  7.58657929553230858666e-01  1.22939537131494525113e-04
7.19999999999999973355e-01  4.09999999999999975575e-01  7.39797902086201442096e-01  1.21099681854364149558e-04
7.29999999999999982236e-01  4.09999999999999975575e-01  7.20207783406657697789e-01  1.19140315850474465265e-04
7.39999999999999991118e-01  4.09999999999999975575e-01  6.99906906596378997065e-01  1.17063372990444669597e-04
7.50000000000000000000e-01  4.09999999999999975575e-01  6.78915306170511989592e-01  1.14870902277353081899e-04
7.60000000000000008882e-01  4.09999999999999975575e-01  6.57253698303436162398e-01  1.12565068309145033254e-04
7.70000000000000017764e-01  4.09999999999999975575e-01  6.34943460387631941622e-01  1.10148145911814765441e-04
7.80000000000000026645e-01  4.09999999999999975575e-01  6.12006609934044876198e-01  1.07622520626460271842e-04
7.90000000000000035527e-01  4.09999999999999975575e-01  5.88465782844720619593e-01  1.04990685091843616306e-04
8.00000000000000044409e-01  4.09999999999999975575e-01  5.64344211074318535815e-01  1.02255236172354990742e-04
8.10000000000000053291e-01  4.09999999999999975575e-01  5.39665699701475931604e-01  9.94188738921986114860e-05
8.19999999999999951150e-01  4.09999999999999975575e-01  5.14454603437819013578e-01  9.64843970256978877842e-05
8.29999999999999960032e-01  4.09999999999999975575e-01  4.88735802591400092521e-01  9.34547017331088802905e-05
8.39999999999999968914e-01  4.09999999999999975575e-01  4.62534678513468522354e-01  9.03327780767959609420e-05
8.49999999999999977796e-01  4.09999999999999975575e-01  4.35877088550535973788e-01  8.71217066706897469430e-05
8.59999999999999986677e-01  4.09999999999999975575e-01  4.08789340525088307210e-01  8.38246568532485802905e-05
8.69999999999999995559e-01  4.09999999999999975575e-01  3.81298166774440505655e-01  8.04448820564407363065e-05
8.80000000000000004441e-01  4.09999999999999975575e-01  3.53430697767827928235e-01  7.69857179175881256583e-05
8.90000000000000013323e-01  4.09999999999999975575e-01  3.25214435332622731067e-01  7.34505782704064635880e-05
9.00000000000000022204e-01  4.09999999999999975575e-01  2.96677225513503728394e-01  6.98429516257648153044e-05
9.10000000000000031086e-01  4.09999999999999975575e-01  2.67847231090949822185e-01  6.61663985483396110965e-05
9.20000000000000039968e-01  4.09999999999999975575e-01  2.38752903789014508940e-01  6.24245471070039581463e-05
9.30000000000000048850e-01  4.09999999999999975575e-01  2.09422956195936260659e-01  5.86210902644435094544e-05
9.39999999999999946709e-01  4.09999999999999975575e-01  1.79886333429066708200e-01  5.47597814498645973913e-05
9.49999999999999955591e-01  4.09999999999999975575e-01  1.50172184569072469928e-01  5.08444313118139312735e-05
9.59999999999999964473e-01  4.09999999999999975575e-01  1.20309833893357823187e-01  4.68789039173161947716e-05
9.69999999999999973355e-01  4.09999999999999975575e-01  9.03287519368236313522e-02  4.28671126530555390843e-05
9.79999999999999982236e-01  4.09999999999999975575e-01  6.02585264076072740780e-02  3.88130167673292336694e-05
9.89999999999999991118e-01  4.09999999999999975575e-01  3.01438280969992186686e-02  1.97255080470401522597e-05
1.00000000000000000000e+00  4.09999999999999975575e-01  0.00000000000000000000e+00  1.17602058840568259697e-16
0.00000000000000000000e+00  4.19999999999999984457e-01  0.00000000000000000000e+00  0.00000000000000000000e+00
1.00000000000000002082e-02  4.19999999999999984457e-01  3.04336460042960547934e-02  9.71368295270974568822e-06
2.00000000000000004163e-02  4.19999999999999984457e-01  6.08367063204540911570e-02  1.88664258427007069940e-05
2.99999999999999988898e-02  4.19999999999999984457e-01  9.11663616618564043304e-02  1.46340593261545803827e-05
4.00000000000000008327e-02  4.19999999999999984457e-01  1.21406046810945258962e-01  1.03872507584007456316e-05
5.00000000000000027756e-02  4.19999999999999984457e-01  1.51525918849361396212e-01  6.13019122824853823772e-06
5.99999999999999977796e-02  4.19999999999999984457e-01  1.81496253099822091315e-01  1.86708194249707304380e-06
7.00000000000000066613e-02  4.19999999999999984457e-01  2.11287472460777059347e-01  2.39786993219692767809e-06
8.00000000000000016653e-02  4.19999999999999984457e-01  2.40870176595462975877e-01  6.66045539465809355306e-06
8.99999999999999966693e-02  4.19999999999999984457e-01  2.70215170946454696921e-01  1.09164677951079092111e-05
1.00000000000000005551e-01  4.19999999999999984457e-01  2.99293495547196974904e-01  1.51617069579779162325e-05
1.10000000000000000555e-01  4.19999999999999984457e-01  3.28076453601967132911e-01  1.93919833553213294408e-05
1.19999999999999995559e-01  4.19999999999999984457e-01  3.56535639806203563662e-01  2.36031221850785399852e-05
1.30000000000000004441e-01  4.19999999999999984457e-01  3.84642968379007910151e-01  2.77909675957532797952e-05
1.40000000000000013323e-01  4.19999999999999984457e-01  4.12370700780524068740e-01  3.19513866831599990803e-05
1.49999999999999994449e-01  4.19999999999999984457e-01  4.39691473086494921674e-01  3.60802736022458603315e-05
1.60000000000000003331e-01  4.19999999999999984457e-01  4.66578322993137839525e-01  4.01735536338931886746e-05
1.70000000000000012212e-01  4.19999999999999984457e-01  4.93004716425631595023e-01  4.42271872567734369852e-05
1.79999999999999993339e-01  4.19999999999999984457e-01  5.18944573724247737445e-01  4.82371739317644099287e-05
1.90000000000000002220e-01  4.19999999999999984457e-01  5.44372295381481241527e-01  5.21995563941279883124e-05
2.00000000000000011102e-01  4.19999999999999984457e-01  5.69262787306068163140e-01  5.61104241654231117309e-05
2.09999999999999992228e-01  4.19999999999999984457e-01  5.93591485587497080800e-01  5.99659177382694252856e-05
2.20000000000000001110e-01  4.19999999999999984457e-01  6.17334380737834975683e-01  6.37622321749686804537e-05
2.30000000000000009992e-01  4.19999999999999984457e-01  6.40468041386048736463e-01  6.74956210054977745472e-05
2.39999999999999991118e-01  4.19999999999999984457e-01  6.62969637402099798429e-01  7.11623997653454409829e-05
2.50000000000000000000e-01  4.19999999999999984457e-01  6.84816962427300501837e-01  7.47589498568679289292e-05
2.60000000000000008882e-01  4.19999999999999984457e-01  7.05988455789500868320e-01  7.82817219292519794749e-05
2.70000000000000017764e-01  4.19999999999999984457e-01  7.26463223780964728604e-01  8.17272392845680428763e-05
2.80000000000000026645e-01  4.19999999999999984457e-01  7.46221060277404757421e-01  8.50921018415995433770e-05
2.89999999999999980016e-01  4.19999999999999984457e-01  7.65242466679783794881e-01  8.83729886949069509683e-05
2.99999999999999988898e-01  4.19999999999999984457e-01  7.83508671156333269536e-01  9.15666621372768219089e-05
3.09999999999999997780e-01  4.19999999999999984457e-01  8.01001647168694264067e-01  9.46699702444320223549e-05
3.20000000000000006661e-01  4.19999999999999984457e-01  8.17704131261265732000e-01  9.76798506553411272080e-05
3.30000000000000015543e-01  4.19999999999999984457e-01  8.33599640099092153989e-01  1.00593332653109435171e-04
3.40000000000000024425e-01  4.19999999999999984457e-01  8.48672486733630715428e-01  1.03407541390709845075e-04
3.49999999999999977796e-01  4.19999999999999984457e-01  8.62907796085397360564e-01  1.06119699206042028550e-04
3.59999999999999986677e-01  4.19999999999999984457e-01  8.76291519622403591860e-01  1.08727129835339830777e-04
3.69999999999999995559e-01  4.19999999999999984457e-01  8.88810449225733711920e-01  1.11227259680268808495e-04
3.80000000000000004441e-01  4.19999999999999984457e-01  9.00452230222722693753e-01  1.13617621989803296856e-04
3.90000000000000013323e-01  4.19999999999999984457e-01  9.11205373581651656423e-01  1.15895857169201477177e-04
4.00000000000000022204e-01  4.19999999999999984457e-01  9.21059267247959723157e-01  1.18059717183482959513e-04
4.09999999999999975575e-01  4.19999999999999984457e-01  9.30004186618237804751e-01  1.20107066599595135870e-04
4.19999999999999984457e-01  4.19999999999999984457e-01  9.38031304137332822002e-01  1.22035884598914456944e-04
4.29999999999999993339e-01  4.19999999999999984457e-01  9.45132698008795180122e-01  1.23844268254402756213e-04
4.40000000000000002220e-01  4.19999999999999984457e-01  9.51301360014828678580e-01  1.25530432316778295387e-04
4.50000000000000011102e-01  4.19999999999999984457e-01  9.56531202430457305752e-01  1.27092713073317931105e-04
4.60000000000000019984e-01  4.19999999999999984457e-01  9.60817064032713830102e-01  1.28529568650836978350e-04
4.69999999999999973355e-01  4.19999999999999984457e-01  9.64154715193542344309e-01  1.29839581139212789651e-04
4.79999999999999982236e-01  4.19999999999999984457e-01  9.66540862054363292266e-01  1.31021457557833898022e-04
4.89999999999999991118e-01  4.19999999999999984457e-01  9.67973149776226837737e-01  1.32074031618412135458e-04
5.00000000000000000000e-01  4.19999999999999984457e-01  9.68450164864071094684e-01  1.32996264559981369757e-04
5.10000000000000008882e-01  4.19999999999999984457e-01  9.67971436561600118154e-01  1.33787246245131719036e-04
5.20000000000000017764e-01  4.19999999999999984457e-01  9.66537437315783787284e-01  1.34446196137338880305e-04
5.30000000000000026645e-01  4.19999999999999984457e-01  9.64149582310881991809e-01  1.34972463799565289833e-04
5.40000000000000035527e-01  4.19999999999999984457e-01  9.60810228071428684693e-01  1.35365529935871364842e-04
5.50000000000000044409e-01  4.19999999999999984457e-01  9.56522670136923380824e-01  1.35625006607131837200e-04
5.60000000000000053291e-01  4.19999999999999984457e-01  9.51291139809226082846e-01  1.35750637919374028684e-04
5.69999999999999951150e-01  4.19999999999999984457e-01  9.45120799977525738456e-01  1.35742299523955445295e-04
5.79999999999999960032e-01  4.19999999999999984457e-01  9.38017740021912183046e-01  1.35600000019664435058e-04
5.89999999999999968914e-01  4.19999999999999984457e-01  9.29988969805236376232e-01  1.35323879601134677841e-04
5.99999999999999977796e-01  4.19999999999999984457e-01  9.21042412754172645784e-01  1.34914210970671355483e-04
6.09999999999999986677e-01  4.19999999999999984457e-01  9.11186898040546089383e-01  1.34371398274768516501e-04
6.19999999999999995559e-01  4.19999999999999984457e-01  9.00432151867722518901e-01  1.33695976989978149163e-04
6.30000000000000004441e-01  4.19999999999999984457e-01  8.88788787871134466911e-01  1.32888614279624839298e-04
6.40000000000000013323e-01  4.19999999999999984457e-01  8.76268296645934086087e-01  1.31950106304734582352e-04
6.50000000000000022204e-01  4.19999999999999984457e-01  8.62883034405043325421e-01  1.30881379560188193523e-04
6.60000000000000031086e-01  4.19999999999999984457e-01  8.48646210786144661320e-01  1.29683488876541908041e-04