Titile = 'Poisson'  
VARIABLES = X, Y, U, Error, Rank 
zone N= 1936, E = 3600
DATAPACKING=POINT, ZONETYPE=FETRIANGLE
0.00000000000000000000e+00  7.50000000000000000000e-01  0.00000000000000000000e+00  0.00000000000000000000e+00 6
8.33333333333333321769e-03  7.50000000000000000000e-01  1.84807838404888111206e-02  2.91138187780148882666e-05 6
1.66666666666666664354e-02  7.50000000000000000000e-01  3.69498072955243977988e-02  5.73022637436124138155e-05 6
2.50000000000000013878e-02  7.50000000000000000000e-01  5.54199876763090890086e-02  5.89709586145542585811e-05 6
3.33333333333333328707e-02  7.50000000000000000000e-01  7.38521859658293061690e-02  6.05992377374076074403e-05 6
4.16666666666666643537e-02  7.50000000000000000000e-01  9.22337696560905501153e-02  6.21859851667044827295e-05 6
5.00000000000000027756e-02  7.50000000000000000000e-01  1.10552140927806311077e-01  6.37301134308460026645e-05 6
5.83333333333333342585e-02  7.50000000000000000000e-01  1.28794745284335321323e-01  6.52305642561135101687e-05 6
6.66666666666666657415e-02  7.50000000000000000000e-01  1.46949080155883510246e-01  6.66863093149450136821e-05 6
7.49999999999999972244e-02  7.50000000000000000000e-01  1.65002703468163064437e-01  6.80963509085974472157e-05 6
8.33333333333333287074e-02  7.50000000000000000000e-01  1.82943242169564701527e-01  6.94597226546245227752e-05 6
9.16666666666666601904e-02  7.50000000000000000000e-01  2.00758400710994266980e-01  7.07754901841939343399e-05 6
1.00000000000000005551e-01  7.50000000000000000000e-01  2.18435969472669078151e-01  7.20427517414412577068e-05 6
1.08333333333333337034e-01  7.50000000000000000000e-01  2.35963833132015937677e-01  7.32606387668366387800e-05 6
1.16666666666666668517e-01  7.50000000000000000000e-01  2.53329978966777780158e-01  7.44283166225767622848e-05 6
1.25000000000000000000e-01  7.50000000000000000000e-01  2.70522505088054587841e-01  7.55449850439182668538e-05 6
1.33333333333333331483e-01  7.50000000000000000000e-01  2.87529628597270325852e-01  7.66098786804114695315e-05 6
1.41666666666666662966e-01  7.50000000000000000000e-01  3.04339693661461518914e-01  7.76222677422166995598e-05 6
1.49999999999999994449e-01  7.50000000000000000000e-01  3.20941179501721018941e-01  7.85814583820210188492e-05 6
1.58333333333333325932e-01  7.50000000000000000000e-01  3.37322708288891159878e-01  7.94867932440990188070e-05 6
1.66666666666666657415e-01  7.50000000000000000000e-01  3.53473052941482512868e-01  8.03376517912179899383e-05 6
1.74999999999999988898e-01  7.50000000000000000000e-01  3.69381144819991846795e-01  8.11334508937222587122e-05 6
1.83333333333333320381e-01  7.50000000000000000000e-01  3.85036081312742362037e-01  8.18736452807278247690e-05 6
1.91666666666666679619e-01  7.50000000000000000000e-01  4.00427133308460192485e-01  8.25577274434219354760e-05 6
2.00000000000000011102e-01  7.50000000000000000000e-01  4.15543752548719280693e-01  8.31852287341838803059e-05 6
2.08333333333333342585e-01  7.50000000000000000000e-01  4.30375578857853935411e-01  8.37557190255244776722e-05 6
2.16666666666666674068e-01  7.50000000000000000000e-01  4.44912447242984121498e-01  8.42688073258712755376e-05 6
2.25000000000000005551e-01  7.50000000000000000000e-01  4.59144394860705851169e-01  8.47241419357214198271e-05 6
2.33333333333333337034e-01  7.50000000000000000000e-01  4.73061667844856981180e-01  8.51214109580666900001e-05 6
2.41666666666666668517e-01  7.50000000000000000000e-01  4.86654727991912228191e-01  8.54603419297994548742e-05 6
2.50000000000000000000e-01  7.50000000000000000000e-01  4.99914259297341900812e-01  8.57407026580991882270e-05 6
2.58333333333333359239e-01  7.50000000000000000000e-01  5.12831174340672379941e-01  8.59623010428522960069e-05 6
2.66666666666666662966e-01  7.50000000000000000000e-01  5.25396620513607692793e-01  8.61249851511480812860e-05 6
2.75000000000000022204e-01  7.50000000000000000000e-01  5.37601986087083538735e-01  8.62286434030190562794e-05 6
2.83333333333333325932e-01  7.50000000000000000000e-01  5.49438906112940217419e-01  8.62732050231906910653e-05 6
2.91666666666666685170e-01  7.50000000000000000000e-01  5.60899268157769470555e-01  8.62586391615627334772e-05 6
2.99999999999999988898e-01  7.50000000000000000000e-01  5.71975217861753648663e-01  8.61849559307126256158e-05 6
3.08333333333333348136e-01  7.50000000000000000000e-01  5.82659164322119060841e-01  8.60522059320523169390e-05 6
3.16666666666666651864e-01  7.50000000000000000000e-01  5.92943785295844905114e-01  8.58604799375273231021e-05 6
3.25000000000000011102e-01  7.50000000000000000000e-01  6.02822032217120828967e-01  8.56099096702145345716e-05 6
3.33333333333333314830e-01  7.50000000000000000000e-01  6.12287135029439211209e-01  8.53006663553701471869e-05 6
3.41666666666666674068e-01  7.50000000000000000000e-01  6.21332606823641886429e-01  8.49329624159622653679e-05 6
3.49999999999999977796e-01  7.50000000000000000000e-01  6.29952248285295501873e-01  8.45070497549338384147e-05 6
3.58333333333333337034e-01  7.50000000000000000000e-01  6.38140151943117350797e-01  8.40232198573431787736e-05 6
3.66666666666666640761e-01  7.50000000000000000000e-01  6.45890706216386556449e-01  8.34818048645047383616e-05 6
3.75000000000000000000e-01  7.50000000000000000000e-01  6.53198599262522994202e-01  8.28831756652936846308e-05 6
3.83333333333333359239e-01  7.50000000000000000000e-01  6.60058822617045515280e-01  8.22277421550499099112e-05 6
3.91666666666666662966e-01  7.50000000000000000000e-01  6.66466674624786925563e-01  8.15159542910670609217e-05 6
4.00000000000000022204e-01  7.50000000000000000000e-01  6.72417763664718393102e-01  8.07482992389862985760e-05 6
4.08333333333333325932e-01  7.50000000000000000000e-01  6.77908011157451806383e-01  7.99253033351154940078e-05 6
4.16666666666666685170e-01  7.50000000000000000000e-01  6.82933654361647879405e-01  7.90475305715299114695e-05 6
4.24999999999999988898e-01  7.50000000000000000000e-01  6.87491248952128430894e-01  7.81155828921686889998e-05 6
4.33333333333333348136e-01  7.50000000000000000000e-01  6.91577671382013092760e-01  7.71300982125300294001e-05 6
4.41666666666666651864e-01  7.50000000000000000000e-01  6.95190121020710094513e-01  7.60917527141691252268e-05 6
4.50000000000000011102e-01  7.50000000000000000000e-01  6.98326122075969002445e-01  7.50012577414027603595e-05 6
4.58333333333333314830e-01  7.50000000000000000000e-01  7.00983525289369135969e-01  7.38593606087745158106e-05 6
4.66666666666666674068e-01  7.50000000000000000000e-01  7.03160509409545109172e-01  7.26668438590927223686e-05 6
4.74999999999999977796e-01  7.50000000000000000000e-01  7.04855582439947059292e-01  7.14245251602907416100e-05 6
4.83333333333333337034e-01  7.50000000000000000000e-01  7.06067582662957438089e-01  7.01332551688027550085e-05 6
4.91666666666666640761e-01  7.50000000000000000000e-01  7.06795679433182000295e-01  6.87939198388276551555e-05 6
5.00000000000000000000e-01  7.50000000000000000000e-01  7.07039373750204758196e-01  6.74074363428145417743e-05 6
5.08333333333333303727e-01  7.50000000000000000000e-01  7.06798498597914992558e-01  6.59747551058353920439e-05 6
5.16666666666666718477e-01  7.50000000000000000000e-01  7.06073219059836665323e-01  6.44968582895755204731e-05 6
5.25000000000000022204e-01  7.50000000000000000000e-01  7.04864032206612645126e-01  6.29747584947049077186e-05 6
5.33333333333333325932e-01  7.50000000000000000000e-01  7.03171766754723814863e-01  6.14094986804980536022e-05 6
5.41666666666666629659e-01  7.50000000000000000000e-01  7.00997582497820848069e-01  5.98021521571734382405e-05 6
5.50000000000000044409e-01  7.50000000000000000000e-01  6.98342969513423450501e-01  5.81538202868436826520e-05 6
5.58333333333333348136e-01  7.50000000000000000000e-01  6.95209747140994482884e-01  5.64656324297807543644e-05 6
5.66666666666666651864e-01  7.50000000000000000000e-01  6.91600062734393006281e-01  5.47387458326165088351e-05 6
5.74999999999999955591e-01  7.50000000000000000000e-01  6.87516390190627157963e-01  5.29743443934416191610e-05 6
5.83333333333333370341e-01  7.50000000000000000000e-01  6.82961528255580097024e-01  5.11736366393122921181e-05 6
5.91666666666666674068e-01  7.50000000000000000000e-01  6.77938598603634479112e-01  4.93378571524427655959e-05 6
5.99999999999999977796e-01  7.50000000000000000000e-01  6.72451043699987649482e-01  4.74682639697299180170e-05 6
6.08333333333333281523e-01  7.50000000000000000000e-01  6.66502624440796331839e-01  4.55661382816607840596e-05 6
6.16666666666666696273e-01  7.50000000000000000000e-01  6.60097417575151168556e-01  4.36327840493966334634e-05 6
6.25000000000000000000e-01  7.50000000000000000000e-01  6.53239812912186801341e-01  4.16695260014865453968e-05 6
6.33333333333333303727e-01  7.50000000000000000000e-01  6.45934510311607534838e-01  3.96777096435263487706e-05 6
6.41666666666666718477e-01  7.50000000000000000000e-01  6.38186516462709629849e-01  3.76587002650641267110e-05 6
6.50000000000000022204e-01  7.50000000000000000000e-01  6.30001141453640056689e-01  3.56138814104900447433e-05 6
6.58333333333333325932e-01  7.50000000000000000000e-01  6.21383995131078004093e-01  3.35446549798446014279e-05 6
6.66666666666666629659e-01  7.50000000000000000000e-01  6.12340983257818827212e-01  3.14524379757541439062e-05 6
6.75000000000000044409e-01  7.50000000000000000000e-01  6.02878303461011455511e-01  2.93386657795879912669e-05 6
6.83333333333333348136e-01  7.50000000000000000000e-01  5.93002440990203938398e-01  2.72047855784940395552e-05 6
6.91666666666666651864e-01  7.50000000000000000000e-01  5.82720164266490425753e-01  2.50522615606874055061e-05 6
6.99999999999999955591e-01  7.50000000000000000000e-01  5.72038520250624182850e-01  2.28825670601784381120e-05 6
7.08333333333333370341e-01  7.50000000000000000000e-01  5.60964829606414472352e-01  2.06971905165609371124e-05 6
7.16666666666666674068e-01  7.50000000000000000000e-01  5.49506681688948894760e-01  1.84976290146243727008e-05 6
7.24999999999999977796e-01  7.50000000000000000000e-01  5.37671929340542309461e-01  1.62853899442483296411e-05 6
7.33333333333333281523e-01  7.50000000000000000000e-01  5.25468683508786837955e-01  1.40619899722249641627e-05 6
7.41666666666666696273e-01  7.50000000000000000000e-01  5.12905307689329625909e-01  1.18289523854953060322e-05 6
7.50000000000000000000e-01  7.50000000000000000000e-01  4.99990412192107880340e-01  9.58780789223068197202e-06 6
7.58333333333333303727e-01  7.50000000000000000000e-01  4.86732848241156479396e-01  7.34009268582580531870e-06 6
7.66666666666666718477e-01  7.50000000000000000000e-01  4.73141701909380485436e-01  5.08734643445141188067e-06 6
7.75000000000000022204e-01  7.50000000000000000000e-01  4.59226287888635786860e-01  2.83111400584123984459e-06 6
7.83333333333333325932e-01  7.50000000000000000000e-01  4.44996143109301522944e-01  5.72941008414318275754e-07 6
7.91666666666666629659e-01  7.50000000000000000000e-01  4.30461020201342470237e-01  1.68562446284381550754e-06 6
8.00000000000000044409e-01  7.50000000000000000000e-01  4.15630880812170921956e-01  3.94303471740187205796e-06 6
8.08333333333333348136e-01  7.50000000000000000000e-01  4.00515888778817996663e-01  6.19774291438224267381e-06 6
8.16666666666666651864e-01  7.50000000000000000000e-01  3.85126403160888364230e-01  8.44820286505232331820e-06 6
8.24999999999999955591e-01  7.50000000000000000000e-01  3.69472971144486961315e-01  1.06928736013367498003e-05 6
8.33333333333333370341e-01  7.50000000000000000000e-01  3.53566320808657574837e-01  1.29302153838439792821e-05 6
8.41666666666666674068e-01  7.50000000000000000000e-01  3.37417353777854478469e-01  1.51586957191085502927e-05 6
8.49999999999999977796e-01  7.50000000000000000000e-01  3.21037137747073708649e-01  1.73767869705576671890e-05 6
8.58333333333333281523e-01  7.50000000000000000000e-01  3.04436898898320040807e-01  1.95829691160276375683e-05 6
8.66666666666666696273e-01  7.50000000000000000000e-01  2.87628014205746462828e-01  2.17757297958365292345e-05 6
8.75000000000000000000e-01  7.50000000000000000000e-01  2.70622003639988395474e-01  2.39535668897783438069e-05 6
8.83333333333333303727e-01  7.50000000000000000000e-01  2.53430522270586155997e-01  2.61149871855215209848e-05 6
8.91666666666666718477e-01  7.50000000000000000000e-01  2.36065352280256768314e-01  2.82585094741605313828e-05 6
9.00000000000000022204e-01  7.50000000000000000000e-01  2.18538394889462916915e-01  3.03826650523142394178e-05 6
9.08333333333333325932e-01  7.50000000000000000000e-01  2.00861662198786067313e-01  3.24859976076063983186e-05 6
9.16666666666666629659e-01  7.50000000000000000000e-01  1.83047268958268477546e-01  3.45670660489572068030e-05 6
9.25000000000000044409e-01  7.50000000000000000000e-01  1.65107424262909613377e-01  3.66244438378404701950e-05 6
9.33333333333333348136e-01  7.50000000000000000000e-01  1.47054423186443739002e-01  3.86567212452837427605e-05 6
9.41666666666666651864e-01  7.50000000000000000000e-01  1.28900638353621754817e-01  4.06625050301534507469e-05 6
9.49999999999999955591e-01  7.50000000000000000000e-01  1.10658511462210701337e-01  4.26404209734609906945e-05 6
9.58333333333333370341e-01  7.50000000000000000000e-01  9.23405447544189544873e-02  4.45891131616998892540e-05 6
9.66666666666666674068e-01  7.50000000000000000000e-01  7.39592924498263665223e-02  4.65072462594584568052e-05 6
9.74999999999999977796e-01  7.50000000000000000000e-01  5.55273521405404008044e-02  4.83935056166673316369e-05 6
9.83333333333333281523e-01  7.50000000000000000000e-01  3.70573561577273585810e-02  5.02465984590499958884e-05 6
9.91666666666666696273e-01  7.50000000000000000000e-01  1.85354824360895349689e-02  2.55847768228303906746e-05 6
1.00000000000000000000e+00  7.50000000000000000000e-01  0.00000000000000000000e+00  8.65956056235493409077e-17 6
0.00000000000000000000e+00  7.58333333333333303727e-01  0.00000000000000000000e+00  0.00000000000000000000e+00 6
8.33333333333333321769e-03  7.58333333333333303727e-01  1.79892485718433949027e-02  2.97735735799650735878e-05 6
1.66666666666666664354e-02  7.58333333333333303727e-01  3.59670970228387482104e-02  5.85979302997405304687e-05 6
2.50000000000000013878e-02  7.58333333333333303727e-01  5.39474600040206336837e-02  6.02175450357192443285e-05 6
3.33333333333333328707e-02  7.58333333333333303727e-01  7.18908500908538999896e-02  6.17958896718673322823e-05 6
4.16666666666666643537e-02  7.58333333333333303727e-01  8.97849697800603696596e-02  6.33318824946327296743e-05 6
5.00000000000000027756e-02  7.58333333333333303727e-01  1.07617555335841524888e-01  6.48244708060241592307e-05 6
5.83333333333333342585e-02  7.58333333333333303727e-01  1.25376385194807787871e-01  6.62726316677242355269e-05 6
6.66666666666666657415e-02  7.58333333333333303727e-01  1.43049288342054659040e-01  6.76753725750711687681e-05 6
7.49999999999999972244e-02  7.58333333333333303727e-01  1.60624152652545149067e-01  6.90317321606903622211e-05 6
8.33333333333333287074e-02  7.58333333333333303727e-01  1.78088933192163761943e-01  7.03407808445577487078e-05 6
9.16666666666666601904e-02  7.58333333333333303727e-01  1.95431660472710877485e-01  7.16016214730996747306e-05 6
1.00000000000000005551e-01  7.58333333333333303727e-01  2.12640448655204455930e-01  7.28133899217109359370e-05 6
1.08333333333333337034e-01  7.58333333333333303727e-01  2.29703503695802530027e-01  7.39752557246398101398e-05 6
1.16666666666666668517e-01  7.58333333333333303727e-01  2.46609131428923572527e-01  7.50864225723124611989e-05 6
1.25000000000000000000e-01  7.58333333333333303727e-01  2.63345745581763379661e-01  7.61461289374709693334e-05 6
1.33333333333333331483e-01  7.58333333333333303727e-01  2.79901875714993753075e-01  7.71536485506540969936e-05 6
1.41666666666666662966e-01  7.58333333333333303727e-01  2.96266175084019145469e-01  7.81082909075969666901e-05 6
1.49999999999999994449e-01  7.58333333333333303727e-01  3.12427428415457841826e-01  7.90094017533160553057e-05 6
1.58333333333333325932e-01  7.58333333333333303727e-01  3.28374559593594794737e-01  7.98563634657467602551e-05 6
1.66666666666666657415e-01  7.58333333333333303727e-01  3.44096639251230351775e-01  8.06485956467151154925e-05 6
1.74999999999999988898e-01  7.58333333333333303727e-01  3.59582892260338571333e-01  8.13855553039588563990e-05 6
1.83333333333333320381e-01  7.58333333333333303727e-01  3.74822705116679255610e-01  8.20667373453987103460e-05 6
1.91666666666666679619e-01  7.58333333333333303727e-01  3.89805633213710256424e-01  8.26916749790962413158e-05 6
2.00000000000000011102e-01  7.58333333333333303727e-01  4.04521408000991122833e-01  8.32599398404854085243e-05 6
2.08333333333333342585e-01  7.58333333333333303727e-01  4.18959944021498720268e-01  8.37711425226705941327e-05 6
2.16666666666666674068e-01  7.58333333333333303727e-01  4.33111345823879501094e-01  8.42249326589161739776e-05 6
2.25000000000000005551e-01  7.58333333333333303727e-01  4.46965914744281211934e-01  8.46209991791635474101e-05 6
2.33333333333333337034e-01  7.58333333333333303727e-01  4.60514155553091664164e-01  8.49590707646674658804e-05 6
2.41666666666666668517e-01  7.58333333333333303727e-01  4.73746782962933599137e-01  8.52389155945876275666e-05 6
2.50000000000000000000e-01  7.58333333333333303727e-01  4.86654727991891633554e-01  8.54603419505606254347e-05 6
2.58333333333333359239e-01  7.58333333333333303727e-01  4.99229144179277439797e-01  8.56231980096988642970e-05 6
2.66666666666666662966e-01  7.58333333333333303727e-01  5.11461413648223173212e-01  8.57273722775220292647e-05 6
2.75000000000000022204e-01  7.58333333333333303727e-01  5.23343153012342909847e-01  8.57727932659368974555e-05 6
2.83333333333333325932e-01  7.58333333333333303727e-01  5.34866219121013619642e-01  8.57594298141473032615e-05 6
2.91666666666666685170e-01  7.58333333333333303727e-01  5.46022714640159390065e-01  8.56872912363693117754e-05 6
2.99999999999999988898e-01  7.58333333333333303727e-01  5.56804993465236375272e-01  8.55564267669972622343e-05 6
3.08333333333333348136e-01  7.58333333333333303727e-01  5.67205665960827554173e-01  8.53669261909884014017e-05 6
3.16666666666666651864e-01  7.58333333333333303727e-01  5.77217604025354158459e-01  8.51189195579804547265e-05 6
3.25000000000000011102e-01  7.58333333333333303727e-01  5.86833945977045967624e-01  8.48125763680540600831e-05 6
3.33333333333333314830e-01  7.58333333333333303727e-01  5.96048101254793016857e-01  8.44481072563851853374e-05 6
3.41666666666666674068e-01  7.58333333333333303727e-01  6.04853754937611620690e-01  8.40257612257921948640e-05 6
3.49999999999999977796e-01  7.58333333333333303727e-01  6.13244872069508728529e-01  8.35458285419754531631e-05 6
3.58333333333333337034e-01  7.58333333333333303727e-01  6.21215701798786268384e-01  8.30086372884952794493e-05 6
3.66666666666666640761e-01  7.58333333333333303727e-01  6.28760781316133554597e-01  8.24145563954603588286e-05 6
3.75000000000000000000e-01  7.58333333333333303727e-01  6.35874939601454691740e-01  8.17639924961532926773e-05 6
3.83333333333333359239e-01  7.58333333333333303727e-01  6.42553300965540308276e-01  8.10573919350909832815e-05 6
3.91666666666666662966e-01  7.58333333333333303727e-01  6.48791288393923859523e-01  8.02952381604438159002e-05 6
4.00000000000000022204e-01  7.58333333333333303727e-01  6.54584626680517200903e-01  7.94780546132800580494e-05 6
4.08333333333333325932e-01  7.58333333333333303727e-01  6.59929345361636054967e-01  7.86064003569508784608e-05 6
4.16666666666666685170e-01  7.58333333333333303727e-01  6.64821781433310610154e-01  7.76808735399869831895e-05 6
4.24999999999999988898e-01  7.58333333333333303727e-01  6.69258581865004309464e-01  7.67021077079377278096e-05 6
4.33333333333333348136e-01  7.58333333333333303727e-01  6.73236705894432185815e-01  7.56707745503959472444e-05 6
4.41666666666666651864e-01  7.58333333333333303727e-01  6.76753427114993533209e-01  7.45875799939010875050e-05 6
4.50000000000000011102e-01  7.58333333333333303727e-01  6.79806335340804479550e-01  7.34532672298504607511e-05 6
4.58333333333333314830e-01  7.58333333333333303727e-01  6.82393338261808035661e-01  7.22686129142058319985e-05 6
4.66666666666666674068e-01  7.58333333333333303727e-01  6.84512662874726118822e-01  7.10344296498410798790e-05 6
4.74999999999999977796e-01  7.58333333333333303727e-01  6.86162856701028944784e-01  6.97515625871503175404e-05 6
4.83333333333333337034e-01  7.58333333333333303727e-01  6.87342788779643165675e-01  6.84208915927575489491e-05 6
4.91666666666666640761e-01  7.58333333333333303727e-01  6.88051650444764018033e-01  6.70433279390536540632e-05 6
5.00000000000000000000e-01  7.58333333333333303727e-01  6.88288955877105923520e-01  6.56198166483212830258e-05 6
5.08333333333333303727e-01  7.58333333333333303727e-01  6.88054542440167726802e-01  6.41513325353448848887e-05 6
5.16666666666666718477e-01  7.58333333333333303727e-01  6.87348570789149126981e-01  6.26388820867962436978e-05 6
5.25000000000000022204e-01  7.58333333333333303727e-01  6.86171524761111206736e-01  6.10835025048883650811e-05 6
5.33333333333333325932e-01  7.58333333333333303727e-01  6.84524211045213659688e-01  5.94862591624112369004e-05 6
5.41666666666666629659e-01  7.58333333333333303727e-01  6.82407758627947003127e-01  5.78482467753493878604e-05 6
5.50000000000000044409e-01  7.58333333333333303727e-01  6.79823618019749220664e-01  5.61705882849983240135e-05 6
5.58333333333333348136e-01  7.58333333333333303727e-01  6.76773560261734852261e-01  5.44544332526930574545e-05 6
5.66666666666666651864e-01  7.58333333333333303727e-01  6.73259675711236571516e-01  5.27009577460102462965e-05 6
5.74999999999999955591e-01  7.58333333333333303727e-01  6.69284372608979993835e-01  5.09113637323643786203e-05 6
5.83333333333333370341e-01  7.58333333333333303727e-01  6.64850375429233420022e-01  4.90868776171771159511e-05 6
5.91666666666666674068e-01  7.58333333333333303727e-01  6.59960723012248950958e-01  4.72287497440548875716e-05 6
5.99999999999999977796e-01  7.58333333333333303727e-01  6.54618766481382730049e-01  4.53382537478619340732e-05 6
6.08333333333333281523e-01  7.58333333333333303727e-01  6.48828166946957218819e-01  4.34166851270845199906e-05 6
6.16666666666666696273e-01  7.58333333333333303727e-01  6.42592892996759257329e-01  4.14653607161419301974e-05 6
6.25000000000000000000e-01  7.58333333333333303727e-01  6.35917217975640269856e-01  3.94856183105751767926e-05 6
6.33333333333333303727e-01  7.58333333333333303727e-01  6.28805717058322000135e-01  3.74788142071258434385e-05 6
6.41666666666666718477e-01  7.58333333333333303727e-01  6.21263264111987068006e-01  3.54463240876956575676e-05 6
6.50000000000000022204e-01  7.58333333333333303727e-01  6.13295028357054738954e-01  3.33895409960760503054e-05 6
6.58333333333333325932e-01  7.58333333333333303727e-01  6.04906470824874809011e-01  3.13098739626038735651e-05 6
6.66666666666666629659e-01  7.58333333333333303727e-01  5.96103340612781473773e-01  2.92087492680392912803e-05 6
6.75000000000000044409e-01  7.58333333333333303727e-01  5.86891670947757182475e-01  2.70876056569502310367e-05 6
6.83333333333333348136e-01  7.58333333333333303727e-01  5.77277775046316943275e-01  2.49478985951956389044e-05 6
6.91666666666666651864e-01  7.58333333333333303727e-01  5.67268241794991578963e-01  2.27910920269636108060e-05 6
6.99999999999999955591e-01  7.58333333333333303727e-01  5.56869931225051240098e-01  2.06186669521324361654e-05 6
7.08333333333333370341e-01  7.58333333333333303727e-01  5.46089969821367593461e-01  1.84321100281659155939e-05 6
7.16666666666666674068e-01  7.58333333333333303727e-01  5.34935745629780634580e-01  1.62329210473544094384e-05 6
7.24999999999999977796e-01  7.58333333333333303727e-01  5.23414903199060255190e-01  1.40226065485915540876e-05 6
7.33333333333333281523e-01  7.58333333333333303727e-01  5.11535338338587775020e-01  1.18026819131422655573e-05 6
7.41666666666666696273e-01  7.58333333333333303727e-01  4.99305192709034950660e-01  9.57466825207697880273e-06 6
7.50000000000000000000e-01  7.58333333333333303727e-01  4.86732848241156701441e-01  7.34009268560376071378e-06 6
7.58333333333333303727e-01  7.58333333333333303727e-01  4.73826921392294209134e-01  5.10048623425518599106e-06 6
7.66666666666666718477e-01  7.58333333333333303727e-01  4.60596257239273387807e-01  2.85738458283280039041e-06 6
7.75000000000000022204e-01  7.58333333333333303727e-01  4.47049923419126027380e-01  6.12324334403613335098e-07 6
7.83333333333333325932e-01  7.58333333333333303727e-01  4.33197203911819983535e-01  1.63315528167728984954e-06 6
7.91666666666666629659e-01  7.58333333333333303727e-01  4.19047592680106106844e-01  3.87751608454944829418e-06 6
8.00000000000000044409e-01  7.58333333333333303727e-01  4.04610787159868312557e-01  6.11921903659329302627e-06 6
8.08333333333333348136e-01  7.58333333333333303727e-01  3.89896681616890450339e-01  8.35672820109767400254e-06 6
8.16666666666666651864e-01  7.58333333333333303727e-01  3.74915360364408256633e-01  1.05885103833802673989e-05 6
8.24999999999999955591e-01  7.58333333333333303727e-01  3.59677090850962666302e-01  1.28130353200806013092e-05 6
8.33333333333333370341e-01  7.58333333333333303727e-01  3.44192316626071526109e-01  1.50287791944592186155e-05 6
8.41666666666666674068e-01  7.58333333333333303727e-01  3.28471650179880891862e-01  1.72342228201838310042e-05 6
8.49999999999999977796e-01  7.58333333333333303727e-01  3.12525865672306502052e-01  1.94278550952886597258e-05 6
8.58333333333333281523e-01  7.58333333333333303727e-01  2.96365891547525517336e-01  2.16081725984973438415e-05 6
8.66666666666666696273e-01  7.58333333333333303727e-01  2.80002803044297754465e-01  2.37736807534583149959e-05 6
8.75000000000000000000e-01  7.58333333333333303727e-01  2.63447814606324548503e-01  2.59228956235868501778e-05 6
8.83333333333333303727e-01  7.58333333333333303727e-01  2.46712272195959148036e-01  2.80543444629854921146e-05 6
8.91666666666666718477e-01  7.58333333333333303727e-01  2.29807645517487946218e-01  3.01665659609429148702e-05 6
9.00000000000000022204e-01  7.58333333333333303727e-01  2.12745520158103218478e-01  3.22581129769961005849e-05 6
9.08333333333333325932e-01  7.58333333333333303727e-01  1.95537589646009840605e-01  3.43275518258634448898e-05 6
9.16666666666666629659e-01  7.58333333333333303727e-01  1.78195647437322385320e-01  3.63734643138990954014e-05 6
9.25000000000000044409e-01  7.58333333333333303727e-01  1.60731578833000793294e-01  3.83944482948705978487e-05 6
9.33333333333333348136e-01  7.58333333333333303727e-01  1.43157352833132189840e-01  4.03891185024596310882e-05 6
9.41666666666666651864e-01  7.58333333333333303727e-01  1.25485013934660660784e-01  4.23561081849821441381e-05 6
9.49999999999999955591e-01  7.58333333333333303727e-01  1.07726673875658582324e-01  4.42940690109500101457e-05 6
9.58333333333333370341e-01  7.58333333333333303727e-01  8.98945033354684036597e-02  4.62016729134012704705e-05 6
9.66666666666666674068e-01  7.58333333333333303727e-01  7.20007235930393008072e-02  4.80776125133391962763e-05 6
9.74999999999999977796e-01  7.58333333333333303727e-01  5.40575981511450254224e-02  4.99206020885892276517e-05 6
9.83333333333333281523e-01  7.58333333333333303727e-01  3.60774243317593459879e-02  5.17293786205658134847e-05 6
9.91666666666666696273e-01  7.58333333333333303727e-01  1.80453602659038925271e-02  2.63381204806505120342e-05 6
1.00000000000000000000e+00  7.58333333333333303727e-01  0.00000000000000000000e+00  8.42991227801790565643e-17 6
0.00000000000000000000e+00  7.66666666666666718477e-01  0.00000000000000000000e+00  0.00000000000000000000e+00 6
8.33333333333333321769e-03  7.66666666666666718477e-01  1.74853843708102432708e-02  3.04129230613986445420e-05 6
1.66666666666666664354e-02  7.66666666666666718477e-01  3.49597366984494492548e-02  5.98534367622152729815e-05 6
2.50000000000000013878e-02  7.66666666666666718477e-01  5.24379594373825530518e-02  6.14228613580181104226e-05 6
3.33333333333333328707e-02  7.66666666666666718477e-01  6.98802438182522245302e-02  6.29501897923545605806e-05 6
4.16666666666666643537e-02  7.66666666666666718477e-01  8.72746357706021269607e-02  6.44343753138376662548e-05 6
5.00000000000000027756e-02  7.66666666666666718477e-01  1.04609214047064039144e-01  6.58744007292211275484e-05 6
5.83333333333333342585e-02  7.66666666666666718477e-01  1.21872098393561445473e-01  6.72692791243156840153e-05 6
6.66666666666666657415e-02  7.66666666666666718477e-01  1.39051457691470897737e-01  6.86180545118042495290e-05 6
7.49999999999999972244e-02  7.66666666666666718477e-01  1.56135518066051748320e-01  6.99198025144731616365e-05 6
8.33333333333333287074e-02  7.66666666666666718477e-01  1.73112570955692379737e-01  7.11736309779442688495e-05 6
9.16666666666666601904e-02  7.66666666666666718477e-01  1.89970981136363181729e-01  7.23786805926218690388e-05 6
1.00000000000000005551e-01  7.66666666666666718477e-01  2.06699194695829174817e-01  7.35341254712029712692e-05 6
1.08333333333333337034e-01  7.66666666666666718477e-01  2.23285746952114394492e-01  7.46391737247165121261e-05 6
1.16666666666666668517e-01  7.66666666666666718477e-01  2.39719270310791959799e-01  7.56930680354539475729e-05 6
1.25000000000000000000e-01  7.66666666666666718477e-01  2.55988502055855104977e-01  7.66950860864312744525e-05 6
1.33333333333333331483e-01  7.66666666666666718477e-01  2.72082292068525355422e-01  7.76445411512227678941e-05 6
1.41666666666666662966e-01  7.66666666666666718477e-01  2.87989610469017387473e-01  7.85407825341088994264e-05 6
1.49999999999999994449e-01  7.66666666666666718477e-01  3.03699555175874436053e-01  7.93831960094748545487e-05 6
1.58333333333333325932e-01  7.66666666666666718477e-01  3.19201359377792648342e-01  8.01712041600954883336e-05 6
1.66666666666666657415e-01  7.66666666666666718477e-01  3.34484398912435310081e-01  8.09042669936421710020e-05 6
1.74999999999999988898e-01  7.66666666666666718477e-01  3.49538199547905159559e-01  8.15818821106595315484e-05 6