Titile = 'Poisson'  
VARIABLES = X, Y, U, Error 
zone N= 2121, E = 4000
DATAPACKING=POINT, ZONETYPE=FETRIANGLE
0.00000000000000000000e+00  5.99999999999999977796e-01  0.00000000000000000000e+00  0.00000000000000000000e+00
1.00000000000000002082e-02  5.99999999999999977796e-01  2.98520442638260941060e-02  2.13628392049698689892e-05
2.00000000000000004163e-02  5.99999999999999977796e-01  5.96753132650970422035e-02  4.20194948145477531476e-05
2.99999999999999988898e-02  5.99999999999999977796e-01  8.94562988660544400332e-02  4.60257530645880041931e-05
4.00000000000000008327e-02  5.99999999999999977796e-01  1.19149001900224718598e-01  4.99865894493106699414e-05
5.00000000000000027756e-02  5.99999999999999977796e-01  1.48724119254545983360e-01  5.38980951119982787390e-05
5.99999999999999977796e-02  5.99999999999999977796e-01  1.78152463858851584089e-01  5.77564098539207204652e-05
7.00000000000000066613e-02  5.99999999999999977796e-01  2.07404993489928302086e-01  6.15577260002220238988e-05
8.00000000000000016653e-02  5.99999999999999977796e-01  2.36452839432744449377e-01  6.52982920971989511116e-05
8.99999999999999966693e-02  5.99999999999999977796e-01  2.65267334970333001909e-01  6.89744166681993675638e-05
1.00000000000000005551e-01  5.99999999999999977796e-01  2.93820043674435371628e-01  7.25824718011969238773e-05
1.10000000000000000555e-01  5.99999999999999977796e-01  3.22082787468718489965e-01  7.61188968338988303231e-05
1.19999999999999995559e-01  5.99999999999999977796e-01  3.50027674437341396185e-01  7.95802016601565576082e-05
1.30000000000000004441e-01  5.99999999999999977796e-01  3.77627126350619457540e-01  8.29629704636736242662e-05
1.40000000000000013323e-01  5.99999999999999977796e-01  4.04853905881669196010e-01  8.62638648273517105736e-05
1.49999999999999994449e-01  5.99999999999999977796e-01  4.31681143486206453375e-01  8.94796271827535960597e-05
1.60000000000000003331e-01  5.99999999999999977796e-01  4.58082363919661006424e-01  9.26070839071257978503e-05
1.70000000000000012212e-01  5.99999999999999977796e-01  4.84031512364830329709e-01  9.56431486707765010635e-05
1.79999999999999993339e-01  5.99999999999999977796e-01  5.09502980145140060841e-01  9.85848251819909648930e-05
1.90000000000000002220e-01  5.99999999999999977796e-01  5.34471629997129049627e-01  1.01429210330739039136e-04
2.00000000000000011102e-01  5.99999999999999977796e-01  5.58912820877789595642e-01  1.04173497157855621253e-04
2.09999999999999992228e-01  5.99999999999999977796e-01  5.82802432282674254260e-01  1.06814977252289722287e-04
2.20000000000000001110e-01  5.99999999999999977796e-01  6.06116888049450186493e-01  1.09351043896310784476e-04
2.30000000000000009992e-01  5.99999999999999977796e-01  6.28833179625050808781e-01  1.11779194311267815465e-04
2.39999999999999991118e-01  5.99999999999999977796e-01  6.50928888772389524497e-01  1.14097032078541715805e-04
2.50000000000000000000e-01  5.99999999999999977796e-01  6.72382209694109445053e-01  1.16302269847823325222e-04
2.60000000000000008882e-01  5.99999999999999977796e-01  6.93171970552485694483e-01  1.18392731381811167068e-04
2.70000000000000017764e-01  5.99999999999999977796e-01  7.13277654363608459853e-01  1.20366353567824546644e-04
2.80000000000000026645e-01  5.99999999999999977796e-01  7.32679419245000906891e-01  1.22221188623150567309e-04
2.89999999999999980016e-01  5.99999999999999977796e-01  7.51358117996914209868e-01  1.23955406263864809091e-04
2.99999999999999988898e-01  5.99999999999999977796e-01  7.69295316999144551673e-01  1.25567294668837980964e-04
3.09999999999999997780e-01  5.99999999999999977796e-01  7.86473314401366474513e-01  1.27055263593356393415e-04
3.20000000000000006661e-01  5.99999999999999977796e-01  8.02875157594581390086e-01  1.28417844079131704405e-04
3.30000000000000015543e-01  5.99999999999999977796e-01  8.18484659939517023020e-01  1.29653691682718452682e-04
3.40000000000000024425e-01  5.99999999999999977796e-01  8.33286416741762958615e-01  1.30761586925931538872e-04
3.49999999999999977796e-01  5.99999999999999977796e-01  8.47265820454769835735e-01  1.31740436072780298105e-04
3.59999999999999986677e-01  5.99999999999999977796e-01  8.60409075094545228168e-01  1.32589273399541518472e-04
3.69999999999999995559e-01  5.99999999999999977796e-01  8.72703209855610340107e-01  1.33307261159454348842e-04
3.80000000000000004441e-01  5.99999999999999977796e-01  8.84136091911384536246e-01  1.33893690645869867240e-04
3.90000000000000013323e-01  5.99999999999999977796e-01  8.94696438387456716157e-01  1.34347983254290426203e-04
4.00000000000000022204e-01  5.99999999999999977796e-01  9.04373827496734894460e-01  1.34669690738831171473e-04
4.09999999999999975575e-01  5.99999999999999977796e-01  9.13158708824863829534e-01  1.34858495282830226358e-04
4.19999999999999984457e-01  5.99999999999999977796e-01  9.21042412754172312717e-01  1.34914210971004422390e-04
4.29999999999999993339e-01  5.99999999999999977796e-01  9.28017159021100490612e-01  1.34836782411329458853e-04
4.40000000000000002220e-01  5.99999999999999977796e-01  9.34076064392679983328e-01  1.34626286490746593927e-04
4.50000000000000011102e-01  5.99999999999999977796e-01  9.39213149461246454841e-01  1.34282930506435249640e-04
4.60000000000000019984e-01  5.99999999999999977796e-01  9.43423344543835806775e-01  1.33807053518397722769e-04
4.69999999999999973355e-01  5.99999999999999977796e-01  9.46702494686217810305e-01  1.33199125146532537656e-04
4.79999999999999982236e-01  5.99999999999999977796e-01  9.49047363763103501988e-01  1.32459745337820677946e-04
4.89999999999999991118e-01  5.99999999999999977796e-01  9.50455637671922204390e-01  1.31589643662222144371e-04
5.00000000000000000000e-01  5.99999999999999977796e-01  9.50925926616151162563e-01  1.30589679002479641667e-04
5.10000000000000008882e-01  5.99999999999999977796e-01  9.50457766477659227178e-01  1.29460837925199356846e-04
5.20000000000000017764e-01  5.99999999999999977796e-01  9.49051619273561186674e-01  1.28204234880135992114e-04
5.30000000000000026645e-01  5.99999999999999977796e-01  9.46708872701793158200e-01  1.26821109571184642562e-04
5.40000000000000035527e-01  5.99999999999999977796e-01  9.43431838770220854151e-01  1.25312827133239323985e-04
5.50000000000000044409e-01  5.99999999999999977796e-01  9.39223751515617988339e-01  1.23680876134790729282e-04
5.60000000000000053291e-01  5.99999999999999977796e-01  9.34088763812228495276e-01  1.21926866942234646274e-04
5.69999999999999951150e-01  5.99999999999999977796e-01  9.28031943272791703947e-01  1.20052530720227146332e-04
5.79999999999999960032e-01  5.99999999999999977796e-01  9.21059267247868240780e-01  1.18059717275187381347e-04
5.89999999999999968914e-01  5.99999999999999977796e-01  9.13177616927284607762e-01  1.15950392862163020880e-04
5.99999999999999977796e-01  5.99999999999999977796e-01  9.04394770547823911855e-01  1.13726639649924798903e-04
6.09999999999999986677e-01  5.99999999999999977796e-01  8.94719395718938770301e-01  1.11390651772236282113e-04
6.19999999999999995559e-01  5.99999999999999977796e-01  8.84161040867097125506e-01  1.08944734933280606981e-04
6.30000000000000004441e-01  5.99999999999999977796e-01  8.72730125813911628008e-01  1.06391302858277470023e-04
6.40000000000000013323e-01  5.99999999999999977796e-01  8.60437931492795904376e-01  1.03732875148754288830e-04
6.50000000000000022204e-01  5.99999999999999977796e-01  8.47296588814995810246e-01  1.00972075846916808928e-04
6.60000000000000031086e-01  5.99999999999999977796e-01  8.33319066699581001423e-01  9.81116291076666868776e-05
6.70000000000000039968e-01  5.99999999999999977796e-01  8.18519159272951490891e-01  9.51543582482505811981e-05
6.80000000000000048850e-01  5.99999999999999977796e-01  8.02911472257338276748e-01  9.21031813221340200926e-05
6.89999999999999946709e-01  5.99999999999999977796e-01  7.86511408555125801634e-01  8.89611098342513173520e-05
6.99999999999999955591e-01  5.99999999999999977796e-01  7.69335153049460762631e-01  8.57312443526270229199e-05
7.09999999999999964473e-01  5.99999999999999977796e-01  7.51399656630523105072e-01  8.24167726551916501876e-05
7.19999999999999973355e-01  5.99999999999999977796e-01  7.32722619468282543309e-01  7.90209653415141488608e-05
7.29999999999999982236e-01  5.99999999999999977796e-01  7.13322473543260615614e-01  7.55471739157798083397e-05
7.39999999999999991118e-01  5.99999999999999977796e-01  6.93218364457044544658e-01  7.19988268228499705970e-05
7.50000000000000000000e-01  5.99999999999999977796e-01  6.72430132538806346609e-01  6.83794251510327910637e-05
7.60000000000000008882e-01  5.99999999999999977796e-01  6.50978293262823193288e-01  6.46925416450949697378e-05
7.70000000000000017764e-01  5.99999999999999977796e-01  6.28884017005256645838e-01  6.09418141054307582749e-05
7.80000000000000026645e-01  5.99999999999999977796e-01  6.06169108148875146469e-01  5.71309444715728531605e-05
7.90000000000000035527e-01  5.99999999999999977796e-01  5.82855983566481494762e-01  5.32636934450492205428e-05
8.00000000000000044409e-01  5.99999999999999977796e-01  5.58967650497179890934e-01  4.93438777676713513642e-05
8.10000000000000053291e-01  5.99999999999999977796e-01  5.34527683842075163057e-01  4.53753653845145876744e-05
8.19999999999999951150e-01  5.99999999999999977796e-01  5.09560202897191727445e-01  4.13620731306574285213e-05
8.29999999999999960032e-01  5.99999999999999977796e-01  4.84089847552053198498e-01  3.73079614480187338188e-05
8.39999999999999968914e-01  5.99999999999999977796e-01  4.58141753972180931775e-01  3.32170313874780021024e-05
8.49999999999999977796e-01  5.99999999999999977796e-01  4.31741529793389366976e-01  2.90933199999510172518e-05
8.59999999999999986677e-01  5.99999999999999977796e-01  4.04915228849346220397e-01  2.49408971504938570263e-05
8.69999999999999995559e-01  5.99999999999999977796e-01  3.77689325460538904977e-01  2.07638605442261869882e-05
8.80000000000000004441e-01  5.99999999999999977796e-01  3.50090688306298858379e-01  1.65663327028608975411e-05
8.90000000000000013323e-01  5.99999999999999977796e-01  3.22146553909888222478e-01  1.23524556641108063104e-05
9.00000000000000022204e-01  5.99999999999999977796e-01  2.93884499757855244262e-01  8.12638838143531216929e-06
9.10000000000000031086e-01  5.99999999999999977796e-01  2.65332417085743066387e-01  3.89230125796835579877e-06
9.20000000000000039968e-01  5.99999999999999977796e-01  2.36518483351828734396e-01  3.45626987058311740952e-07
9.30000000000000048850e-01  5.99999999999999977796e-01  2.07471134430232767576e-01  4.58321430449326605583e-06
9.39999999999999946709e-01  5.99999999999999977796e-01  1.78219036547135861737e-01  8.81627842996834942824e-06
9.49999999999999955591e-01  5.99999999999999977796e-01  1.48791057991631253676e-01  1.30406419731887712743e-05
9.59999999999999964473e-01  5.99999999999999977796e-01  1.19216240625619002147e-01  1.72521359447092015316e-05
9.69999999999999973355e-01  5.99999999999999977796e-01  8.95237712233356713876e-02  2.14466042166017167858e-05
9.79999999999999982236e-01  5.99999999999999977796e-01  5.97429526671571231589e-02  2.56199072453389131709e-05
9.89999999999999991118e-01  5.99999999999999977796e-01  2.98865661003493363057e-02  1.31589973183243724719e-05
1.00000000000000000000e+00  5.99999999999999977796e-01  0.00000000000000000000e+00  1.16470831848909259188e-16
0.00000000000000000000e+00  6.09999999999999986677e-01  0.00000000000000000000e+00  0.00000000000000000000e+00
1.00000000000000002082e-02  6.09999999999999986677e-01  2.95308000670496464957e-02  2.29790878156187206027e-05
2.00000000000000004163e-02  6.09999999999999986677e-01  5.90332077930726326076e-02  4.51845047030469126881e-05
2.99999999999999988898e-02  6.09999999999999986677e-01  8.84955632285072957277e-02  4.91389716016227273698e-05
4.00000000000000008327e-02  6.09999999999999986677e-01  1.17870584227233912711e-01  5.30449442682212612965e-05
5.00000000000000027756e-02  6.09999999999999986677e-01  1.47129281190017696668e-01  5.68985679776090602644e-05
5.99999999999999977796e-02  6.09999999999999986677e-01  1.76242779315399722417e-01  6.06960396704603333262e-05
7.00000000000000066613e-02  6.09999999999999986677e-01  2.05182347095646033797e-01  6.44336117001653718717e-05
8.00000000000000016653e-02  6.09999999999999986677e-01  2.33919424671271025673e-01  6.81075955371035490771e-05
8.99999999999999966693e-02  6.09999999999999986677e-01  2.62425652016184396409e-01  7.17143653954921411753e-05
1.00000000000000005551e-01  6.09999999999999986677e-01  2.90672896925582679994e-01  7.52503618413613573068e-05
1.10000000000000000555e-01  6.09999999999999986677e-01  3.18633282779103688132e-01  7.87120952411290986106e-05
1.19999999999999995559e-01  6.09999999999999986677e-01  3.46279216051535110310e-01  8.20961493549487997257e-05
1.30000000000000004441e-01  6.09999999999999986677e-01  3.73583413544588183175e-01  8.53991844128598742714e-05
1.40000000000000013323e-01  6.09999999999999986677e-01  4.00518929311674598548e-01  8.86179408563503301366e-05
1.49999999999999994449e-01  6.09999999999999986677e-01  4.27059181250826369602e-01  9.17492420314802714643e-05
1.60000000000000003331e-01  6.09999999999999986677e-01  4.53177977337512305489e-01  9.47899978329114212272e-05
1.70000000000000012212e-01  6.09999999999999986677e-01  4.78849541473461259855e-01  9.77372072956672610644e-05
1.79999999999999993339e-01  6.09999999999999986677e-01  5.04048538924122158100e-01  1.00587961994302865776e-04
1.90000000000000002220e-01  6.09999999999999986677e-01  5.28750101321406762445e-01  1.03339448494277341695e-04
2.00000000000000011102e-01  6.09999999999999986677e-01  5.52929851205499867106e-01  1.05988951395685759849e-04
2.09999999999999992228e-01  6.09999999999999986677e-01  5.76563926082427680164e-01  1.08533856053472099745e-04
2.20000000000000001110e-01  6.09999999999999986677e-01  5.99629001973740027864e-01  1.10971650877367267185e-04
2.30000000000000009992e-01  6.09999999999999986677e-01  6.22102316434213431506e-01  1.13299930057264575112e-04
2.39999999999999991118e-01  6.09999999999999986677e-01  6.43961691015639714486e-01  1.15516395934434079606e-04
2.50000000000000000000e-01  6.09999999999999986677e-01  6.65185553154495012862e-01  1.17618861050994283346e-04
2.60000000000000008882e-01  6.09999999999999986677e-01  6.85752957461183032528e-01  1.19605250580967492624e-04
2.70000000000000017764e-01  6.09999999999999986677e-01  7.05643606390910838044e-01  1.21473604072552809896e-04
2.80000000000000026645e-01  6.09999999999999986677e-01  7.24837870274421924854e-01  1.23222077876516955541e-04
2.89999999999999980016e-01  6.09999999999999986677e-01  7.43316806690769937838e-01  1.24848946305045060967e-04
2.99999999999999988898e-01  6.09999999999999986677e-01  7.61062179160512108922e-01  1.26352604024715375886e-04
3.09999999999999997780e-01  6.09999999999999986677e-01  7.78056475143795722715e-01  1.27731566756383863037e-04
3.20000000000000006661e-01  6.09999999999999986677e-01  7.94282923321768974390e-01  1.28984474092930234690e-04
3.30000000000000015543e-01  6.09999999999999986677e-01  8.09725510149547189620e-01  1.30110089141988183314e-04
3.40000000000000024425e-01  6.09999999999999986677e-01  8.24368995658016912031e-01  1.31107301377997309544e-04
3.49999999999999977796e-01  6.09999999999999986677e-01  8.38198928495165307417e-01  1.31975126417827048897e-04
3.59999999999999986677e-01  6.09999999999999986677e-01  8.51201660186806319253e-01  1.32712708007520774345e-04
3.69999999999999995559e-01  6.09999999999999986677e-01  8.63364358606705906141e-01  1.33319318135649567125e-04
3.80000000000000004441e-01  6.09999999999999986677e-01  8.74675020639748779239e-01  1.33794358346706054874e-04
3.90000000000000013323e-01  6.09999999999999986677e-01  8.85122484028478817564e-01  1.34137359415809065410e-04
4.00000000000000022204e-01  6.09999999999999986677e-01  8.94696438387394543668e-01  1.34347983316351893279e-04
4.09999999999999975575e-01  6.09999999999999986677e-01  9.03387435379800596280e-01  1.34426021808797813151e-04
4.19999999999999984457e-01  6.09999999999999986677e-01  9.11186898040546533473e-01  1.34371398274324427291e-04
4.29999999999999993339e-01  6.09999999999999986677e-01  9.18087129242115773664e-01  1.34184166130646431725e-04
4.40000000000000002220e-01  6.09999999999999986677e-01  9.24081319288906244402e-01  1.33864510634351674412e-04
4.50000000000000011102e-01  6.09999999999999986677e-01  9.29163552639334477945e-01  1.33412746941674598133e-04
4.60000000000000019984e-01  6.09999999999999986677e-01  9.33328813742551721688e-01  1.32829321005889511298e-04
4.69999999999999973355e-01  6.09999999999999986677e-01  9.36572991988975367406e-01  1.32114808349959034217e-04
4.79999999999999982236e-01  6.09999999999999986677e-01  9.38892885765666207476e-01  1.31269914795839603983e-04
4.89999999999999991118e-01  6.09999999999999986677e-01  9.40286205618519166372e-01  1.30295473183328347488e-04
5.00000000000000000000e-01  6.09999999999999986677e-01  9.40751576508369602436e-01  1.29192445855852433567e-04
5.10000000000000008882e-01  6.09999999999999986677e-01  9.40288539170273107715e-01  1.27961921429387004423e-04
5.20000000000000017764e-01  6.09999999999999986677e-01  9.38897550566927363569e-01  1.26605113534683511034e-04
5.30000000000000026645e-01  6.09999999999999986677e-01  9.36579983435060881014e-01  1.25123362264445425751e-04
5.40000000000000035527e-01  6.09999999999999986677e-01  9.33338124934717017211e-01  1.23518128840482965813e-04
5.50000000000000044409e-01  6.09999999999999986677e-01  9.29175174388187974372e-01  1.21790998088067148331e-04
5.60000000000000053291e-01  6.09999999999999986677e-01  9.24095240124951367022e-01  1.19943674589229054561e-04
5.69999999999999951150e-01  6.09999999999999986677e-01  9.18103335427464917196e-01  1.17977980781502900243e-04
5.79999999999999960032e-01  6.09999999999999986677e-01  9.11205373581767896773e-01  1.15895857053072148801e-04
5.89999999999999968914e-01  6.09999999999999986677e-01  9.03408162043220719362e-01  1.13699358388785753959e-04
5.99999999999999977796e-01  6.09999999999999986677e-01  8.94719395718938659279e-01  1.11390651772347304416e-04
6.09999999999999986677e-01  6.09999999999999986677e-01  8.85147649371466171964e-01  1.08972016428454665515e-04
6.19999999999999995559e-01  6.09999999999999986677e-01  8.74702369159589321335e-01  1.06445838506163958925e-04
6.30000000000000004441e-01  6.09999999999999986677e-01  8.63393863313365983458e-01  1.03814611475683271635e-04
6.40000000000000013323e-01  6.09999999999999986677e-01  8.51233291962590343793e-01  1.01080932223385211444e-04
6.50000000000000022204e-01  6.09999999999999986677e-01  8.38232656123670372139e-01  9.82474979128733494349e-05
6.60000000000000031086e-01  6.09999999999999986677e-01  8.24404785853838140142e-01  9.53171055565471547766e-05
6.70000000000000039968e-01  6.09999999999999986677e-01  8.09763327592307735614e-01  9.22926463814421893517e-05
6.80000000000000048850e-01  6.09999999999999986677e-01  7.94322730690186218361e-01  8.91771056755752411505e-05
6.89999999999999946709e-01  6.09999999999999986677e-01  7.78098233152536011836e-01  8.59735580163167867340e-05
6.99999999999999955591e-01  6.09999999999999986677e-01  7.61105846599815061282e-01  8.26851647217630159048e-05
7.09999999999999964473e-01  6.09999999999999986677e-01  7.43362340466065307787e-01  7.93151710098971562957e-05
7.19999999999999973355e-01  6.09999999999999986677e-01  7.24885225449145242926e-01  7.58669031531988835582e-05
7.29999999999999982236e-01  6.09999999999999986677e-01  7.05692736231443684680e-01  7.23437635398171963175e-05
7.39999999999999991118e-01  6.09999999999999986677e-01  6.85803813482454449613e-01  6.87492293094393858155e-05
7.50000000000000000000e-01  6.09999999999999986677e-01  6.65238085167234260986e-01  6.50868483118571816703e-05
7.60000000000000008882e-01  6.09999999999999986677e-01  6.44015847177689892966e-01  6.13602338844776440396e-05
7.70000000000000017764e-01  6.09999999999999986677e-01  6.22158043299467888865e-01  5.75730648028072167222e-05
7.80000000000000026645e-01  6.09999999999999986677e-01  5.99686244546832059044e-01  5.37290777855581325184e-05
7.90000000000000035527e-01  6.09999999999999986677e-01  5.76622627871696935564e-01  4.98320667842166997730e-05
8.00000000000000044409e-01  6.09999999999999986677e-01  5.52989954279601070297e-01  4.58858772945935911025e-05
8.10000000000000053291e-01  6.09999999999999986677e-01  5.28811546365495654953e-01  4.18944044052738107098e-05
8.19999999999999951150e-01  6.09999999999999986677e-01  5.04111265299703514842e-01  3.78615864132791912766e-05
8.29999999999999960032e-01  6.09999999999999986677e-01  4.78913487276970806228e-01  3.37914037862319105443e-05
8.39999999999999968914e-01  6.09999999999999986677e-01  4.53243079462129105917e-01  2.96878732163885494799e-05
8.49999999999999977796e-01  6.09999999999999986677e-01  4.27125375448680455470e-01  2.55550441775054260063e-05
8.59999999999999986677e-01  6.09999999999999986677e-01  4.00586150257139117503e-01  2.13969953919979083423e-05
8.69999999999999995559e-01  6.09999999999999986677e-01  3.73651594898614880513e-01  1.72178303861625359161e-05
8.80000000000000004441e-01  6.09999999999999986677e-01  3.46348290527546343043e-01  1.30216733438826004488e-05
8.90000000000000013323e-01  6.09999999999999986677e-01  3.18703182208628810201e-01  8.81266571595151759766e-06
9.00000000000000022204e-01  6.09999999999999986677e-01  2.90743552326611809367e-01  4.59496081234300746132e-06
9.10000000000000031086e-01  6.09999999999999986677e-01  2.62496993660169486429e-01  3.72721410235588024307e-07
9.20000000000000039968e-01  6.09999999999999986677e-01  2.33991382152773597092e-01  3.84988596544011407730e-06
9.30000000000000048850e-01  6.09999999999999986677e-01  2.05254849401172945189e-01  8.06869382699582082807e-06
9.39999999999999946709e-01  6.09999999999999986677e-01  1.76315754894033283051e-01  1.22795389627117224052e-05
9.49999999999999955591e-01  6.09999999999999986677e-01  1.47202658023605797988e-01  1.64782656103812374937e-05
9.59999999999999964473e-01  6.09999999999999986677e-01  1.17944289901800045128e-01  2.06607302976474782596e-05
9.69999999999999973355e-01  6.09999999999999986677e-01  8.85695250053404325996e-02  2.48228052314725111671e-05
9.79999999999999982236e-01  6.09999999999999986677e-01  5.91073526808857385717e-02  2.89603831098647623854e-05
9.89999999999999991118e-01  6.09999999999999986677e-01  2.95686421770927909680e-02  1.48630222275777934549e-05
1.00000000000000000000e+00  6.09999999999999986677e-01  0.00000000000000000000e+00  1.15224662207909261871e-16
0.00000000000000000000e+00  6.19999999999999995559e-01  0.00000000000000000000e+00  0.00000000000000000000e+00
1.00000000000000002082e-02  6.19999999999999995559e-01  2.91804125359036471699e-02  2.45726588409649060463e-05
2.00000000000000004163e-02  6.19999999999999995559e-01  5.83328436721210139004e-02  4.83049229415902225959e-05
2.99999999999999988898e-02  6.19999999999999995559e-01  8.74474931542509881233e-02  5.22036959077765150283e-05
4.00000000000000008327e-02  6.19999999999999995559e-01  1.16475842518301730966e-01  5.60509501285194611242e-05
5.00000000000000027756e-02  6.19999999999999995559e-01  1.45389244288082197798e-01  5.98428888321789198557e-05
5.99999999999999977796e-02  6.19999999999999995559e-01  1.74159164426810952886e-01  6.35757698249916902711e-05
7.00000000000000066613e-02  6.19999999999999995559e-01  2.02757210496740530870e-01  6.72459092093402599488e-05
8.00000000000000016653e-02  6.19999999999999995559e-01  2.31155159679078875401e-01  7.08496850055639892929e-05
8.99999999999999966693e-02  6.19999999999999995559e-01  2.59324986626524367495e-01  7.43835407067128251413e-05
1.00000000000000005551e-01  6.19999999999999995559e-01  2.87238891120849215710e-01  7.78439888389215184361e-05
1.10000000000000000555e-01  6.19999999999999995559e-01  3.14869325508396580293e-01  8.12276143651868842710e-05
1.19999999999999995559e-01  6.19999999999999995559e-01  3.42189021886348476720e-01  8.45310779957753055669e-05
1.30000000000000004441e-01  6.19999999999999995559e-01  3.69171019012607182219e-01  8.77511197306946044705e-05
1.40000000000000013323e-01  6.19999999999999995559e-01  3.95788688913721931062e-01  9.08845616405806744353e-05
1.49999999999999994449e-01  6.19999999999999995559e-01  4.22015763162991441870e-01  9.39283114954059250579e-05
1.60000000000000003331e-01  6.19999999999999995559e-01  4.47826358804609081510e-01  9.68793654376742807699e-05
1.70000000000000012212e-01  6.19999999999999995559e-01  4.73195003896796639875e-01  9.97348111639873025069e-05
1.79999999999999993339e-01  6.19999999999999995559e-01  4.98096662649706756198e-01  1.02491830629269919939e-04
1.90000000000000002220e-01  6.19999999999999995559e-01  5.22506760132503078609e-01  1.05147703049035534661e-04
2.00000000000000011102e-01  6.19999999999999995559e-01  5.46401206526014870946e-01  1.07699807420091886456e-04
2.09999999999999992228e-01  6.19999999999999995559e-01  5.69756420896578630320e-01  1.10145625007662673056e-04
2.20000000000000001110e-01  6.19999999999999995559e-01  5.92549354467173494676e-01  1.12482742231856391868e-04
2.30000000000000009992e-01  6.19999999999999995559e-01  6.14757513364276642065e-01  1.14708852552936058089e-04
2.39999999999999991118e-01  6.19999999999999995559e-01  6.36358980816320696228e-01  1.16821759027940785813e-04
2.50000000000000000000e-01  6.19999999999999995559e-01  6.57332438782790684506e-01  1.18819376590084679890e-04
2.60000000000000008882e-01  6.19999999999999995559e-01  6.77657188992918046999e-01  1.20699733743956372223e-04
2.70000000000000017764e-01  6.19999999999999995559e-01  6.97313173372006822603e-01  1.22460974879334827392e-04
2.80000000000000026645e-01  6.19999999999999995559e-01  7.16280993836670321073e-01  1.24101361764106243868e-04
2.89999999999999980016e-01  6.19999999999999995559e-01  7.34541931438014272793e-01  1.25619275642807615156e-04
2.99999999999999988898e-01  6.19999999999999995559e-01  7.52077964835421552969e-01  1.27013218392257876133e-04
3.09999999999999997780e-01  6.19999999999999995559e-01  7.68871788080908724616e-01  1.28281814530284421494e-04
3.20000000000000006661e-01  6.19999999999999995559e-01  7.84906827698772624480e-01  1.29423811808249134003e-04
3.30000000000000015543e-01  6.19999999999999995559e-01  8.00167259040337364162e-01  1.30438083719708330932e-04
3.40000000000000024425e-01  6.19999999999999995559e-01  8.14638021902904130300e-01  1.31323628679735904257e-04
3.49999999999999977796e-01  6.19999999999999995559e-01  8.28304835390063498579e-01  1.32079573302301689353e-04
3.59999999999999986677e-01  6.19999999999999995559e-01  8.41154212007323653921e-01  1.32705171156488610507e-04
3.69999999999999995559e-01  6.19999999999999995559e-01  8.53173470970943537139e-01  1.33199805195993725704e-04
3.80000000000000004441e-01  6.19999999999999995559e-01  8.64350750723789973406e-01  1.33562986915691794820e-04
3.90000000000000013323e-01  6.19999999999999995559e-01  8.74675020639819056356e-01  1.33794358276428937415e-04
4.00000000000000022204e-01  6.19999999999999995559e-01  8.84136091911395416432e-01  1.33893690634878659296e-04
4.09999999999999975575e-01  6.19999999999999995559e-01  8.92724627603131537512e-01  1.33860886253445166005e-04
4.19999999999999984457e-01  6.19999999999999995559e-01  9.00432151867722518901e-01  1.33695976989978149163e-04
4.29999999999999993339e-01  6.19999999999999995559e-01  9.07251058308489066739e-01  1.33399126360567166216e-04
4.40000000000000002220e-01  6.19999999999999995559e-01  9.13174617488721418468e-01  1.32970626630313226713e-04
4.50000000000000011102e-01  6.19999999999999995559e-01  9.18196983570326641377e-01  1.32410901018897853021e-04
4.60000000000000019984e-01  6.19999999999999995559e-01  9.22313200084500572906e-01  1.31720501746812601596e-04
4.69999999999999973355e-01  6.19999999999999995559e-01  9.25519204822013108469e-01  1.30900110642317990539e-04
4.79999999999999982236e-01  6.19999999999999995559e-01  9.27811833844389366455e-01  1.29950536197132038296e-04
4.89999999999999991118e-01  6.19999999999999995559e-01  9.29188824602133256469e-01  1.28872716970040990248e-04
5.00000000000000000000e-01  6.19999999999999995559e-01  9.29648818172642332769e-01  1.27667715609014464917e-04
5.10000000000000008882e-01  6.19999999999999995559e-01  9.29191360597637738827e-01  1.26336721465558632360e-04
5.20000000000000017764e-01  6.19999999999999995559e-01  9.27816903331775577612e-01  1.24881048810920880499e-04
5.30000000000000026645e-01  6.19999999999999995559e-01  9.25526802799848669068e-01  1.23302132806757391847e-04
5.40000000000000035527e-01  6.19999999999999995559e-01  9.22323319053012458113e-01  1.21601533234816372442e-04
5.50000000000000044409e-01  6.19999999999999995559e-01  9.18209613544075264890e-01  1.19780927270163317644e-04
5.60000000000000053291e-01  6.19999999999999995559e-01  9.13189746003405411479e-01  1.17842111946320216020e-04
5.69999999999999951150e-01  6.19999999999999995559e-01  9.07268670433820423327e-01  1.15787001029321601209e-04
5.79999999999999960032e-01  6.19999999999999995559e-01  9.00452230222856475628e-01  1.13617621856132444691e-04
5.89999999999999968914e-01  6.19999999999999995559e-01  8.92747152373301378070e-01  1.11336116083715630509e-04
5.99999999999999977796e-01  6.19999999999999995559e-01  8.84161040867097236529e-01  1.08944734933169584679e-04
6.09999999999999986677e-01  6.19999999999999995559e-01  8.74702369159589321335e-01  1.06445838506163958925e-04
6.19999999999999995559e-01  6.19999999999999995559e-01  8.64380471817655204880e-01  1.03841893050460321035e-04
6.30000000000000004441e-01  6.19999999999999995559e-01  8.53205535308306006748e-01  1.01135467833635139812e-04
6.40000000000000013323e-01  6.19999999999999995559e-01  8.41188587944135313101e-01  9.83292343447184080674e-05
6.50000000000000022204e-01  6.19999999999999995559e-01  8.28341489001651165580e-01  9.54259617147457106512e-05
6.60000000000000031086e-01  6.19999999999999995559e-01  8.14676917016382895476e-01  9.24285152007486843218e-05