Titile = 'Poisson'  
VARIABLES = X, Y, U, Error, Rank 
zone N= 1936, E = 3600
DATAPACKING=POINT, ZONETYPE=FETRIANGLE
0.00000000000000000000e+00  3.75000000000000000000e-01  0.00000000000000000000e+00  0.00000000000000000000e+00 3
8.33333333333333321769e-03  3.75000000000000000000e-01  2.41968426408020395590e-02  1.24958755520765407709e-05 3
1.66666666666666664354e-02  3.75000000000000000000e-01  4.83766119641900194104e-02  2.44931769279171929199e-05 3
2.50000000000000013878e-02  3.75000000000000000000e-01  7.25088952427868360662e-02  2.21425604871594572387e-05 3
3.33333333333333328707e-02  3.75000000000000000000e-01  9.65914845464859589397e-02  1.97767686430788680596e-05 3
4.16666666666666643537e-02  3.75000000000000000000e-01  1.20607874871527756544e-01  1.73974227881540377538e-05 3
5.00000000000000027756e-02  3.75000000000000000000e-01  1.44541606583630605209e-01  1.50061536088874625250e-05 3
5.83333333333333342585e-02  3.75000000000000000000e-01  1.68376276698596949455e-01  1.26045999630786109691e-05 3
6.66666666666666657415e-02  3.75000000000000000000e-01  1.92095550124089686772e-01  1.01944077470217386860e-05 3
7.49999999999999972244e-02  3.75000000000000000000e-01  2.15683170854927441784e-01  7.77722880632158997116e-06 3
8.33333333333333287074e-02  3.75000000000000000000e-01  2.39122973114065107136e-01  5.35471973062140449429e-06 3
9.16666666666666601904e-02  3.75000000000000000000e-01  2.62398892431896624267e-01  2.92854080463644805832e-06 3
1.00000000000000005551e-01  3.75000000000000000000e-01  2.85494976655962517942e-01  5.00354793209201176296e-07 3
1.08333333333333337034e-01  3.75000000000000000000e-01  3.08395396883830941182e-01  1.92817412625334583254e-06 3
1.16666666666666668517e-01  3.75000000000000000000e-01  3.31084458311365514849e-01  4.35538157489423483071e-06 3
1.25000000000000000000e-01  3.75000000000000000000e-01  3.53546610989206977482e-01  6.77960406680888638675e-06 3
1.33333333333333331483e-01  3.75000000000000000000e-01  3.75766460479928343652e-01  9.19918015201970362682e-06 3
1.41666666666666662966e-01  3.75000000000000000000e-01  3.97728778408589112026e-01  1.16124515798787797394e-05 3
1.49999999999999994449e-01  3.75000000000000000000e-01  4.19418512899515760761e-01  1.40177644221139985348e-05 3
1.58333333333333325932e-01  3.75000000000000000000e-01  4.40820798892142373671e-01  1.64134701697848939261e-05 3
1.66666666666666657415e-01  3.75000000000000000000e-01  4.61920968328681180726e-01  1.87979269621330047357e-05 3
1.74999999999999988898e-01  3.75000000000000000000e-01  4.82704560207036725838e-01  2.11695005523648838164e-05 3
1.83333333333333320381e-01  3.75000000000000000000e-01  5.03157330491388887772e-01  2.35265656925998101201e-05 3
1.91666666666666679619e-01  3.75000000000000000000e-01  5.23265261874732767744e-01  2.58675068589564460808e-05 3
2.00000000000000011102e-01  3.75000000000000000000e-01  5.43014573385265153505e-01  2.81907197337005754889e-05 3
2.08333333333333342585e-01  3.75000000000000000000e-01  5.62391729831374420634e-01  3.04946121052473984037e-05 3
2.16666666666666674068e-01  3.75000000000000000000e-01  5.81383451077955748509e-01  3.27776049883210518487e-05 3
2.25000000000000005551e-01  3.75000000000000000000e-01  5.99976721147908564902e-01  3.50381337490546229674e-05 3
2.33333333333333337034e-01  3.75000000000000000000e-01  6.18158797142748239750e-01  3.72746490675535113724e-05 3
2.41666666666666668517e-01  3.75000000000000000000e-01  6.35917217975658588536e-01  3.94856182919234299789e-05 3
2.50000000000000000000e-01  3.75000000000000000000e-01  6.53239812912216444296e-01  4.16695259717325683368e-05 3
2.58333333333333359239e-01  3.75000000000000000000e-01  6.70114709911019179600e-01  4.38248754818237884479e-05 3
2.66666666666666662966e-01  3.75000000000000000000e-01  6.86530343760618388949e-01  4.59501896182823443837e-05 3
2.75000000000000022204e-01  3.75000000000000000000e-01  7.02475464005611116569e-01  4.80440117391900400889e-05 3
2.83333333333333325932e-01  3.75000000000000000000e-01  7.17939142656948581234e-01  5.01049069520087542173e-05 3
2.91666666666666685170e-01  3.75000000000000000000e-01  7.32910781681816669852e-01  5.21314627174307432256e-05 3
2.99999999999999988898e-01  3.75000000000000000000e-01  7.47380120266594283329e-01  5.41222902185056753410e-05 3
3.08333333333333348136e-01  3.75000000000000000000e-01  7.61337241849424084528e-01  5.60760249922465092709e-05 3
3.16666666666666651864e-01  3.75000000000000000000e-01  7.74772580916318287514e-01  5.79913280752686333130e-05 3
3.25000000000000011102e-01  3.75000000000000000000e-01  7.87676929557088012501e-01  5.98668867173302032825e-05 3
3.33333333333333314830e-01  3.75000000000000000000e-01  8.00041443775478033906e-01  6.17014157874296031991e-05 3
3.41666666666666674068e-01  3.75000000000000000000e-01  8.11857649551600779603e-01  6.34936574546163257082e-05 3
3.49999999999999977796e-01  3.75000000000000000000e-01  8.23117448647593175082e-01  6.52423840625804274396e-05 3
3.58333333333333337034e-01  3.75000000000000000000e-01  8.33813124160151852848e-01  6.69463965641270419837e-05 3
3.66666666666666640761e-01  3.75000000000000000000e-01  8.43937345807068362014e-01  6.86045275872793069993e-05 3
3.75000000000000000000e-01  3.75000000000000000000e-01  8.53483174953051482170e-01  7.02156402222486875075e-05 3
3.83333333333333359239e-01  3.75000000000000000000e-01  8.62444069363067722378e-01  7.17786308547241347355e-05 3
3.91666666666666662966e-01  3.75000000000000000000e-01  8.70813887688289156586e-01  7.32924276949376007906e-05 3
4.00000000000000022204e-01  3.75000000000000000000e-01  8.78586893672708257874e-01  7.47559938711894744756e-05 3
4.08333333333333325932e-01  3.75000000000000000000e-01  8.85757760086801515520e-01  7.61683258205803070950e-05 3
4.16666666666666685170e-01  3.75000000000000000000e-01  8.92321572376597704768e-01  7.75284559251243621247e-05 3
4.24999999999999988898e-01  3.75000000000000000000e-01  8.98273832033324337587e-01  7.88354517181621972099e-05 3
4.33333333333333348136e-01  3.75000000000000000000e-01  9.03610459675087684950e-01  8.00884178974170524157e-05 3
4.41666666666666651864e-01  3.75000000000000000000e-01  9.08327797844408202366e-01  8.12864952065561752192e-05 3
4.50000000000000011102e-01  3.75000000000000000000e-01  9.12422613512890667842e-01  8.24288629938108030615e-05 3
4.58333333333333314830e-01  3.75000000000000000000e-01  9.15892100298775990730e-01  8.35147379774081599635e-05 3
4.66666666666666674068e-01  3.75000000000000000000e-01  9.18733880388737156331e-01  8.45433763420055939264e-05 3
4.74999999999999977796e-01  3.75000000000000000000e-01  9.20946006169017672427e-01  8.55140727430425684474e-05 3
4.83333333333333337034e-01  3.75000000000000000000e-01  9.22526961558765568050e-01  8.64261622538498031076e-05 3
4.91666666666666640761e-01  3.75000000000000000000e-01  9.23475663050639106189e-01  8.72790192621986093968e-05 3
5.00000000000000000000e-01  3.75000000000000000000e-01  9.23791460451323209746e-01  8.80720599635287371143e-05 3
5.08333333333333303727e-01  3.75000000000000000000e-01  9.23474137329648114836e-01  8.88047402531899621181e-05 3
5.16666666666666718477e-01  3.75000000000000000000e-01  9.22523911162803411656e-01  8.94765582160061967443e-05 3
5.25000000000000022204e-01  3.75000000000000000000e-01  9.20941433188294911183e-01  9.00870534658038124576e-05 3
5.33333333333333325932e-01  3.75000000000000000000e-01  9.18727787957501429439e-01  9.06358075778435079428e-05 3
5.41666666666666629659e-01  3.75000000000000000000e-01  9.15884492592289212176e-01  9.11224444642977360331e-05 3
5.50000000000000044409e-01  3.75000000000000000000e-01  9.12413495745511671231e-01  9.15466303726963914755e-05 3
5.58333333333333348136e-01  3.75000000000000000000e-01  9.08317176264643921790e-01  9.19080749709477728970e-05 3
5.66666666666666651864e-01  3.75000000000000000000e-01  9.03598341562591667042e-01  9.22065303934349600468e-05 3
5.74999999999999955591e-01  3.75000000000000000000e-01  8.98260225693010005976e-01  9.24417920326048303536e-05 3
5.83333333333333370341e-01  3.75000000000000000000e-01  8.92306487133975534398e-01  9.26136985472947316111e-05 3
5.91666666666666674068e-01  3.75000000000000000000e-01  8.85741206280193371647e-01  9.27221324287241799311e-05 3
5.99999999999999977796e-01  3.75000000000000000000e-01  8.78568882647386084628e-01  9.27670191934737431438e-05 3
6.08333333333333281523e-01  3.75000000000000000000e-01  8.70794431787997758043e-01  9.27483279863361431694e-05 3
6.16666666666666696273e-01  3.75000000000000000000e-01  8.62423181922234771690e-01  9.26660716876748224990e-05 3
6.25000000000000000000e-01  3.75000000000000000000e-01  8.53460870286503636706e-01  9.25203067700941517160e-05 3
6.33333333333333303727e-01  3.75000000000000000000e-01  8.43913639201719245619e-01  9.23111329363957011651e-05 3
6.41666666666666718477e-01  3.75000000000000000000e-01  8.33788031862875422817e-01  9.20386938405570731447e-05 3
6.50000000000000022204e-01  3.75000000000000000000e-01  8.23090987855641387227e-01  9.17031760144793040013e-05 3
6.58333333333333325932e-01  3.75000000000000000000e-01  8.11829838399951153605e-01  9.13048091042423237695e-05 3
6.66666666666666629659e-01  3.75000000000000000000e-01  8.00012301324468100283e-01  9.08438667974742486422e-05 3
6.75000000000000044409e-01  3.75000000000000000000e-01  7.87646475779210097912e-01  9.03206645953558151518e-05 3
6.83333333333333348136e-01  3.75000000000000000000e-01  7.74740836683488143244e-01  8.97355609054129033098e-05 3
6.91666666666666651864e-01  3.75000000000000000000e-01  7.61304228917226266660e-01  8.90889571901753996030e-05 3
6.99999999999999955591e-01  3.75000000000000000000e-01  7.47345861260775512491e-01  8.83812960372765132888e-05 3
7.08333333333333370341e-01  3.75000000000000000000e-01  7.32875300081392899720e-01  8.76130631412008753500e-05 3
7.16666666666666674068e-01  3.75000000000000000000e-01  7.17902462779361982825e-01  8.67847845388292071789e-05 3
7.24999999999999977796e-01  3.75000000000000000000e-01  7.02437610989704919184e-01  8.58970276453874248546e-05 3
7.33333333333333281523e-01  3.75000000000000000000e-01  6.86491343548593868640e-01  8.49504016431357200645e-05 3
7.41666666666666696273e-01  3.75000000000000000000e-01  6.70074589231907435938e-01  8.39455545934564284494e-05 3
7.50000000000000000000e-01  3.75000000000000000000e-01  6.53198599262522994202e-01  8.28831756652936846308e-05 3
7.58333333333333303727e-01  3.75000000000000000000e-01  6.35874939601454691740e-01  8.17639924961532926773e-05 3
7.66666666666666718477e-01  3.75000000000000000000e-01  6.18115483019153533206e-01  8.05887726620380107079e-05 3
7.75000000000000022204e-01  3.75000000000000000000e-01  5.99932400960649703237e-01  7.93583210080273104836e-05 3
7.83333333333333325932e-01  3.75000000000000000000e-01  5.81338155201524098281e-01  7.80734814198602578017e-05 3
7.91666666666666629659e-01  3.75000000000000000000e-01  5.62345489309556745283e-01  7.67351339231447937550e-05 3
8.00000000000000044409e-01  3.75000000000000000000e-01  5.42967419908800486006e-01  7.53441961984790964379e-05 3
8.08333333333333348136e-01  3.75000000000000000000e-01  5.23217227760503278411e-01  7.39016210884457791508e-05 3
8.16666666666666651864e-01  3.75000000000000000000e-01  5.03108448659178919549e-01  7.24083979027900781489e-05 3
8.24999999999999955591e-01  3.75000000000000000000e-01  4.82654864158498231319e-01  7.08655490909704255387e-05 3
8.33333333333333370341e-01  3.75000000000000000000e-01  4.61870492122656073342e-01  6.92741329872403888146e-05 3
8.41666666666666674068e-01  3.75000000000000000000e-01  4.40769577122671563085e-01  6.76352396408175238207e-05 3
8.49999999999999977796e-01  3.75000000000000000000e-01  4.19366580671323263552e-01  6.59499926147222303996e-05 3
8.58333333333333281523e-01  3.75000000000000000000e-01  3.97676171313532278440e-01  6.42195466371009437978e-05 3
8.66666666666666696273e-01  3.75000000000000000000e-01  3.75713214572228171306e-01  6.24450878520810270800e-05 3
8.75000000000000000000e-01  3.75000000000000000000e-01  3.53492762760936052313e-01  6.06278323377895667079e-05 3
8.83333333333333303727e-01  3.75000000000000000000e-01  3.31030044667506850864e-01  5.87690254338912865251e-05 3
8.91666666666666718477e-01  3.75000000000000000000e-01  3.08340455116656919632e-01  5.68699413001083620145e-05 3
9.00000000000000022204e-01  3.75000000000000000000e-01  2.85439544419893054261e-01  5.49318812763655017761e-05 3
9.08333333333333325932e-01  3.75000000000000000000e-01  2.62343007717413201352e-01  5.29561736787864667519e-05 3
9.16666666666666629659e-01  3.75000000000000000000e-01  2.39066674221730418592e-01  5.09441726043446951877e-05 3
9.25000000000000044409e-01  3.75000000000000000000e-01  2.15626496369157122368e-01  4.88972569641088483650e-05 3
9.33333333333333348136e-01  3.75000000000000000000e-01  1.92038538886852599985e-01  4.68168294900650483470e-05 3
9.41666666666666651864e-01  3.75000000000000000000e-01  1.68318967782375539244e-01  4.47043162585814002341e-05 3
9.49999999999999955591e-01  3.75000000000000000000e-01  1.44484039265293490173e-01  4.25611647283385963192e-05 3
9.58333333333333370341e-01  3.75000000000000000000e-01  1.20550088604701663431e-01  4.03888440379390756263e-05 3
9.66666666666666674068e-01  3.75000000000000000000e-01  9.65335189350344513581e-02  3.81888428086923914506e-05 3
9.74999999999999977796e-01  3.75000000000000000000e-01  7.24507900134591237284e-02  3.59626688406777805795e-05 3
9.83333333333333281523e-01  3.75000000000000000000e-01  4.83184069393870624376e-02  3.37118478754283579235e-05 3
9.91666666666666696273e-01  3.75000000000000000000e-01  2.41672399741756152580e-02  1.71067910741916351380e-05 3
1.00000000000000000000e+00  3.75000000000000000000e-01  0.00000000000000000000e+00  1.13142611228770026067e-16 3
0.00000000000000000000e+00  3.83333333333333359239e-01  0.00000000000000000000e+00  0.00000000000000000000e+00 3
8.33333333333333321769e-03  3.83333333333333359239e-01  2.44498177653948538246e-02  1.15311997354351769562e-05 3
1.66666666666666664354e-02  3.83333333333333359239e-01  4.88824199718195170905e-02  2.25956213931316485244e-05 3
2.50000000000000013878e-02  3.83333333333333359239e-01  7.32681000696704248787e-02  2.02240174841661346505e-05 3
3.33333333333333328707e-02  3.83333333333333359239e-01  9.76035658715567744359e-02  1.78385530437696893102e-05 3
4.16666666666666643537e-02  3.83333333333333359239e-01  1.21872139064801654484e-01  1.54408629501751049062e-05 3
5.00000000000000027756e-02  3.83333333333333359239e-01  1.46057187181578868040e-01  1.30325904585393281820e-05 3
5.83333333333333342585e-02  3.83333333333333359239e-01  1.70142134997984612044e-01  1.06153860839064417831e-05 3
6.66666666666666657415e-02  3.83333333333333359239e-01  1.94110475893848610784e-01  8.19090645051701038426e-06 3
7.49999999999999972244e-02  3.83333333333333359239e-01  2.17945783165572809503e-01  5.76081318220955651555e-06 3
8.33333333333333287074e-02  3.83333333333333359239e-01  2.41631721284147144013e-01  3.32677173733864073313e-06 3
9.16666666666666601904e-02  3.83333333333333359239e-01  2.65152057090727977240e-01  8.90450290169653158046e-07 3
1.00000000000000005551e-01  3.83333333333333359239e-01  2.88490670922026570810e-01  1.54648142020041845512e-06 3
1.08333333333333337034e-01  3.83333333333333359239e-01  3.11631567657886521250e-01  3.98235326876106299210e-06 3
1.16666666666666668517e-01  3.83333333333333359239e-01  3.34558887683636174692e-01  6.41549579294409255681e-06 3
1.25000000000000000000e-01  3.83333333333333359239e-01  3.57256917759360581588e-01  8.84424145297657560150e-06 3
1.33333333333333331483e-01  3.83333333333333359239e-01  3.79710101789015819218e-01  1.12669257297803859785e-05 3
1.41666666666666662966e-01  3.83333333333333359239e-01  4.01903051481854345361e-01  1.36818882118805440484e-05 3
1.49999999999999994449e-01  3.83333333333333359239e-01  4.23820556898719558170e-01  1.60874738042715570430e-05 3
1.58333333333333325932e-01  3.83333333333333359239e-01  4.45447596876199447546e-01  1.84820338418045793105e-05 3
1.66666666666666657415e-01  3.83333333333333359239e-01  4.66769349321351390003e-01  2.08639272494259842006e-05 3
1.74999999999999988898e-01  3.83333333333333359239e-01  4.87771201370155949029e-01  2.32315215352718595909e-05 3
1.83333333333333320381e-01  3.83333333333333359239e-01  5.08438759402257578479e-01  2.55831940957351733346e-05 3
1.91666666666666679619e-01  3.83333333333333359239e-01  5.28757858905758437729e-01  2.79173332020654640928e-05 3
2.00000000000000011102e-01  3.83333333333333359239e-01  5.48714574184788195232e-01  3.02323391841996524931e-05 3
2.08333333333333342585e-01  3.83333333333333359239e-01  5.68295227903558353155e-01  3.25266254490585993153e-05 3
2.16666666666666674068e-01  3.83333333333333359239e-01  5.87486400460171309668e-01  3.47986195217142579850e-05 3
2.25000000000000005551e-01  3.83333333333333359239e-01  6.06274939183430783274e-01  3.70467644373873028485e-05 3
2.33333333333333337034e-01  3.83333333333333359239e-01  6.24647967347525923110e-01  3.92695193082159832443e-05 3
2.41666666666666668517e-01  3.83333333333333359239e-01  6.42592892996664444283e-01  4.14653608106219095930e-05 3
2.50000000000000000000e-01  3.83333333333333359239e-01  6.60097417575141509616e-01  4.36327840589445514752e-05 3
2.58333333333333359239e-01  3.83333333333333359239e-01  6.77149544356265509215e-01  4.57703035254830581380e-05 3
2.66666666666666662966e-01  3.83333333333333359239e-01  6.93737586664039396211e-01  4.78764543347942606033e-05 3
2.75000000000000022204e-01  3.83333333333333359239e-01  7.09850175882835277008e-01  4.99497930581682680895e-05 3
2.83333333333333325932e-01  3.83333333333333359239e-01  7.25476269248957250646e-01  5.19888986194594338031e-05 3
2.91666666666666685170e-01  3.83333333333333359239e-01  7.40605157418426252036e-01  5.39923736446734636729e-05 3
2.99999999999999988898e-01  3.83333333333333359239e-01  7.55226471807101229494e-01  5.59588449464687442969e-05 3
3.08333333333333348136e-01  3.83333333333333359239e-01  7.69330191696416476610e-01  5.78869648382163148881e-05 3
3.16666666666666651864e-01  3.83333333333333359239e-01  7.82906651101156536576e-01  5.97754119827653696007e-05 3
3.25000000000000011102e-01  3.83333333333333359239e-01  7.95946545394353499603e-01  6.16228919840811073527e-05 3
3.33333333333333314830e-01  3.83333333333333359239e-01  8.08440937683876148512e-01  6.34281386113766387780e-05 3
3.41666666666666674068e-01  3.83333333333333359239e-01  8.20381264936850151948e-01  6.51899151469237381207e-05 3
3.49999999999999977796e-01  3.83333333333333359239e-01  8.31759343850233312523e-01  6.69070133323401705638e-05 3
3.58333333333333337034e-01  3.83333333333333359239e-01  8.42567376456380134897e-01  6.85782570607473829227e-05 3
3.66666666666666640761e-01  3.83333333333333359239e-01  8.52797955470087853946e-01  7.02025004728490387151e-05 3
3.75000000000000000000e-01  3.83333333333333359239e-01  8.62444069363067722378e-01  7.17786308547241347355e-05 3
3.83333333333333359239e-01  3.83333333333333359239e-01  8.71499107171221254475e-01  7.33055674758675834823e-05 3
3.91666666666666662966e-01  3.83333333333333359239e-01  8.79956863023412916291e-01  7.47822643811790754853e-05 3
4.00000000000000022204e-01  3.83333333333333359239e-01  8.87811540396715725976e-01  7.62077090565860260085e-05 3
4.08333333333333325932e-01  3.83333333333333359239e-01  8.95057756087269340561e-01  7.75809249122794142295e-05 3
4.16666666666666685170e-01  3.83333333333333359239e-01  9.01690543901075614031e-01  7.89009705347565315492e-05 3
4.24999999999999988898e-01  3.83333333333333359239e-01  9.07705358056336009120e-01  8.01669415769756810164e-05 3
4.33333333333333348136e-01  3.83333333333333359239e-01  9.13098076300340344424e-01  8.13779699405658973888e-05 3
4.41666666666666651864e-01  3.83333333333333359239e-01  9.17865002732944801345e-01  8.25332260785405225079e-05 3
4.50000000000000011102e-01  3.83333333333333359239e-01  9.22002870341108282659e-01  8.36319180138600515306e-05 3
4.58333333333333314830e-01  3.83333333333333359239e-01  9.25508843236895750728e-01  8.46732929251636790013e-05 3
4.66666666666666674068e-01  3.83333333333333359239e-01  9.28380518601875870388e-01  8.56566368421241008946e-05 3
4.74999999999999977796e-01  3.83333333333333359239e-01  9.30615928332955477664e-01  8.65812760713069451413e-05 3
4.83333333333333337034e-01  3.83333333333333359239e-01  9.32213540392177519855e-01  8.74465766996790350163e-05 3
4.91666666666666640761e-01  3.83333333333333359239e-01  9.33172259855715502397e-01  8.82519460170261282883e-05 3
5.00000000000000000000e-01  3.83333333333333359239e-01  9.33491429665623595469e-01  8.89968315781475283188e-05 3
5.08333333333333303727e-01  3.83333333333333359239e-01  9.33170831078256046709e-01  8.96807234764818161921e-05 3
5.16666666666666718477e-01  3.83333333333333359239e-01  9.32210683816425689230e-01  9.03031524515096606365e-05 3
5.25000000000000022204e-01  3.83333333333333359239e-01  9.30611645916855190208e-01  9.08636921715944012590e-05 3
5.33333333333333325932e-01  3.83333333333333359239e-01  9.28374813280045896313e-01  9.13619586722091980846e-05 3
5.41666666666666629659e-01  3.83333333333333359239e-01  9.25501718919937155228e-01  9.17976098838702014859e-05 3
5.50000000000000044409e-01  3.83333333333333359239e-01  9.21994331911096476340e-01  9.21703480255553486700e-05 3
5.58333333333333348136e-01  3.83333333333333359239e-01  9.17855056042176098430e-01  9.24799168473544597191e-05 3
5.66666666666666651864e-01  3.83333333333333359239e-01  9.13086728165508509925e-01  9.27261047724003972803e-05 3
5.74999999999999955591e-01  3.83333333333333359239e-01  9.07692616255153628124e-01  9.29087427594676995568e-05 3
5.83333333333333370341e-01  3.83333333333333359239e-01  9.01676417165841237455e-01  9.30277057691331066280e-05 3
5.91666666666666674068e-01  3.83333333333333359239e-01  8.95042254099948308976e-01  9.30829122333109992837e-05 3
5.99999999999999977796e-01  3.83333333333333359239e-01  8.87794673781478360652e-01  9.30743242940623716208e-05 3
6.08333333333333281523e-01  3.83333333333333359239e-01  8.79938643339908455054e-01  9.30019478856403125633e-05 3
6.16666666666666696273e-01  3.83333333333333359239e-01  8.71479546906101520953e-01  9.28658325956011054814e-05 3
6.25000000000000000000e-01  3.83333333333333359239e-01  8.62423181922367554364e-01  9.26660715548921487539e-05 3
6.33333333333333303727e-01  3.83333333333333359239e-01  8.52775755168310278798e-01  9.24028022505352097937e-05 3
6.41666666666666718477e-01  3.83333333333333359239e-01  8.42543878509348531658e-01  9.20762040923506219769e-05 3
6.50000000000000022204e-01  3.83333333333333359239e-01  8.31734564361550687828e-01  9.16865020150758880391e-05 3
6.58333333333333325932e-01  3.83333333333333359239e-01  8.20355220889749436886e-01  9.12339622476388001360e-05 3
6.66666666666666629659e-01  3.83333333333333359239e-01  8.08413646926929185810e-01  9.07188955584503631258e-05 3
6.75000000000000044409e-01  3.83333333333333359239e-01  7.95918026632096542450e-01  9.01416542411492827114e-05 3
6.83333333333333348136e-01  3.83333333333333359239e-01  7.82876923878277342084e-01  8.95026348619598621781e-05 3
6.91666666666666651864e-01  3.83333333333333359239e-01  7.69299276386726460508e-01  8.88022745283434389307e-05 3
6.99999999999999955591e-01  3.83333333333333359239e-01  7.55194389598527471286e-01  8.80410535202269528554e-05 3
7.08333333333333370341e-01  3.83333333333333359239e-01  7.40571930298176916985e-01  8.72194938940085151557e-05 3
7.16666666666666674068e-01  3.83333333333333359239e-01  7.25441919989651684553e-01  8.63381579252475717112e-05 3
7.24999999999999977796e-01  3.83333333333333359239e-01  7.09814728025349839236e-01  8.53976505436060406851e-05 3
7.33333333333333281523e-01  3.83333333333333359239e-01  6.93701064502982411852e-01  8.43986153921116866172e-05 3
7.41666666666666696273e-01  3.83333333333333359239e-01  6.77111972921664917457e-01  8.33417381259637934932e-05 3
7.50000000000000000000e-01  3.83333333333333359239e-01  6.60058822617045515280e-01  8.22277421550499099112e-05 3
7.58333333333333303727e-01  3.83333333333333359239e-01  6.42553300965540308276e-01  8.10573919350909832815e-05 3
7.66666666666666718477e-01  3.83333333333333359239e-01  6.24607405378454050293e-01  7.98314883798667551673e-05 3
7.75000000000000022204e-01  3.83333333333333359239e-01  6.06233435074970405942e-01  7.85508728978756565198e-05 3
7.83333333333333325932e-01  3.83333333333333359239e-01  5.87443982657349095255e-01  7.72164223439286701023e-05 3
7.91666666666666629659e-01  3.83333333333333359239e-01  5.68251925477621044891e-01  7.58290513865889082012e-05 3
8.00000000000000044409e-01  3.83333333333333359239e-01  5.48670416812829242481e-01  7.43897111432634261519e-05 3
8.08333333333333348136e-01  3.83333333333333359239e-01  5.28712876851060498140e-01  7.28993879000050526429e-05 3
8.16666666666666651864e-01  3.83333333333333359239e-01  5.08392983493459738042e-01  7.13591028937976545876e-05 3
8.24999999999999955591e-01  3.83333333333333359239e-01  4.87724662979575229738e-01  6.97699121161021729165e-05 3
8.33333333333333370341e-01  3.83333333333333359239e-01  4.66722080344141698749e-01  6.81329044591172383605e-05 3
8.41666666666666674068e-01  3.83333333333333359239e-01  4.45399629708209232604e-01  6.64492018322415667342e-05 3
8.49999999999999977796e-01  3.83333333333333359239e-01  4.23771924414113654311e-01  6.47199584102864378110e-05 3
8.58333333333333281523e-01  3.83333333333333359239e-01  4.01853787011048013689e-01  6.29463590186563060058e-05 3
8.66666666666666696273e-01  3.83333333333333359239e-01  3.79660239095355012129e-01  6.11296193905319640294e-05 3
8.75000000000000000000e-01  3.83333333333333359239e-01  3.57206491016287319695e-01  5.92709845263494905510e-05 3
8.83333333333333303727e-01  3.83333333333333359239e-01  3.34507931450967188614e-01  5.73717284622632384128e-05 3
8.91666666666666718477e-01  3.83333333333333359239e-01  3.11580116858775235666e-01  5.54331523798246017520e-05 3
9.00000000000000022204e-01  3.83333333333333359239e-01  2.88438760817988359975e-01  5.34565854585222766104e-05 3
9.08333333333333325932e-01  3.83333333333333359239e-01  2.65099723258489017308e-01  5.14433819487902788126e-05 3
9.16666666666666629659e-01  3.83333333333333359239e-01  2.41578999590693815902e-01  4.93949217162392706371e-05 3
9.25000000000000044409e-01  3.83333333333333359239e-01  2.17892709743695373037e-01  4.73126086953656876943e-05 3
9.33333333333333348136e-01  3.83333333333333359239e-01  1.94057087117433552104e-01  4.51978699645416703845e-05 3
9.41666666666666651864e-01  3.83333333333333359239e-01  1.70088467457059605570e-01  4.30521548413498322816e-05 3
9.49999999999999955591e-01  3.83333333333333359239e-01  1.46003277657138608170e-01  4.08769339818315646795e-05 3
9.58333333333333370341e-01  3.83333333333333359239e-01  1.21818024503796931701e-01  3.86736980545476782822e-05 3
9.66666666666666674068e-01  3.83333333333333359239e-01  9.75492833613767346135e-02  3.64439571365199332931e-05 3
9.74999999999999977796e-01  3.83333333333333359239e-01  7.32136868128223233798e-02  3.41892393640602643146e-05 3
9.83333333333333281523e-01  3.83333333333333359239e-01  4.88279132604567608911e-02  3.19110899700200678630e-05 3
9.91666666666666696273e-01  3.83333333333333359239e-01  2.44220960350063319433e-02  1.61905306529271098004e-05 3
1.00000000000000000000e+00  3.83333333333333359239e-01  0.00000000000000000000e+00  1.14330628105641906906e-16 3
0.00000000000000000000e+00  3.91666666666666662966e-01  0.00000000000000000000e+00  0.00000000000000000000e+00 3
8.33333333333333321769e-03  3.91666666666666662966e-01  2.46860362061864999084e-02  1.05586210100774846588e-05 3
1.66666666666666664354e-02  3.91666666666666662966e-01  4.93547264105318461702e-02  2.06825799482709959953e-05 3
2.50000000000000013878e-02  3.91666666666666662966e-01  7.39770906005885325873e-02  1.82916139488120688128e-05 3
3.33333333333333328707e-02  3.91666666666666662966e-01  9.85487545879865367571e-02  1.58881117916787051314e-05 3
4.16666666666666643537e-02  3.91666666666666662966e-01  1.23052878181606581420e-01  1.34737207128643454723e-05 3
5.00000000000000027756e-02  3.91666666666666662966e-01  1.47472667479156410719e-01  1.10500954259296069182e-05 3
5.83333333333333342585e-02  3.91666666666666662966e-01  1.71791386376830890192e-01  8.61889694631079450460e-06 3
6.66666666666666657415e-02  3.91666666666666662966e-01  1.95992368039464265328e-01  6.18179151565256823631e-06 3
7.49999999999999972244e-02  3.91666666666666662966e-01  2.20059026323071060816e-01  3.74044938425410755656e-06 3
8.33333333333333287074e-02  3.91666666666666662966e-01  2.43974867142236262474e-01  1.29654374234067226723e-06 3
9.16666666666666601904e-02  3.91666666666666662966e-01  2.67723499774266959772e-01  1.14825049768452203125e-06 3
1.00000000000000005551e-01  3.91666666666666662966e-01  2.91288648092664581579e-01  3.59225775914406852962e-06 3
1.08333333333333337034e-01  3.91666666666666662966e-01  3.14654161721831637788e-01  6.03380308711320978432e-06 3
1.16666666666666668517e-01  3.91666666666666662966e-01  3.37804027105881310433e-01  8.47121314712095951904e-06 3
1.25000000000000000000e-01  3.91666666666666662966e-01  3.60722378483444627850e-01  1.09028174564151925097e-05 3
1.33333333333333331483e-01  3.91666666666666662966e-01  3.83393508761271928353e-01  1.33269495274923599482e-05 3
1.41666666666666662966e-01  3.91666666666666662966e-01  4.05801880279155535725e-01  1.57419479449028010265e-05 3
1.49999999999999994449e-01  3.91666666666666662966e-01  4.27932135458498785763e-01  1.81461576708175087447e-05 3
1.58333333333333325932e-01  3.91666666666666662966e-01  4.49769107327939343666e-01  2.05379308731989951298e-05 3
1.66666666666666657415e-01  3.91666666666666662966e-01  4.71297829917688593238e-01  2.29156284005660459968e-05 3
1.74999999999999988898e-01  3.91666666666666662966e-01  4.92503548516601830087e-01  2.52776207632088301125e-05 3