Titile = 'Poisson'  
VARIABLES = X, Y, U, Error 
zone N= 2121, E = 4000
DATAPACKING=POINT, ZONETYPE=FETRIANGLE
0.00000000000000000000e+00  8.00000000000000044409e-01  0.00000000000000000000e+00  0.00000000000000000000e+00
1.00000000000000002082e-02  8.00000000000000044409e-01  1.84150561521891215078e-02  4.77247972466114667167e-05
2.00000000000000004163e-02  8.00000000000000044409e-01  3.68137324850735456194e-02  9.36088780393862229801e-05
2.99999999999999988898e-02  8.00000000000000044409e-01  5.52195608497124540426e-02  9.59178370295993287797e-05
4.00000000000000008327e-02  8.00000000000000044409e-01  7.35708941745330663453e-02  9.81321366929910343657e-05
5.00000000000000027756e-02  8.00000000000000044409e-01  9.18496219091218119024e-02  1.00249591788378888957e-04
5.99999999999999977796e-02  8.00000000000000044409e-01  1.10037705156029480547e-01  1.02268112635944818933e-04
7.00000000000000066613e-02  8.00000000000000044409e-01  1.28117194472954998297e-01  1.04185707209658584560e-04
8.00000000000000016653e-02  8.00000000000000044409e-01  1.46070247586720158850e-01  1.06000483060725292361e-04
8.99999999999999966693e-02  8.00000000000000044409e-01  1.63879147001387837079e-01  1.07710649236703037701e-04
1.00000000000000005551e-01  8.00000000000000044409e-01  1.81526317483332810809e-01  1.09314518007441741076e-04
1.10000000000000000555e-01  8.00000000000000044409e-01  1.98994343405858475915e-01  1.10810506547792675391e-04
1.19999999999999995559e-01  8.00000000000000044409e-01  2.16265985936329507844e-01  1.12197138487757364089e-04
1.30000000000000004441e-01  8.00000000000000044409e-01  2.33324200048782154360e-01  1.13473045405959593879e-04
1.40000000000000013323e-01  8.00000000000000044409e-01  2.50152151345366779989e-01  1.14636968120029880680e-04
1.49999999999999994449e-01  8.00000000000000044409e-01  2.66733232669778497215e-01  1.15687758017013475609e-04
1.60000000000000003331e-01  8.00000000000000044409e-01  2.83051080496698526101e-01  1.16624378004137607689e-04
1.70000000000000012212e-01  8.00000000000000044409e-01  2.99089591080260008837e-01  1.17445903889734637460e-04
1.79999999999999993339e-01  8.00000000000000044409e-01  3.14832936347052338988e-01  1.18151524744536384759e-04
1.90000000000000002220e-01  8.00000000000000044409e-01  3.30265579515805152155e-01  1.18740544415019133595e-04
2.00000000000000011102e-01  8.00000000000000044409e-01  3.45372290431122441756e-01  1.19212381403943634695e-04
2.09999999999999992228e-01  8.00000000000000044409e-01  3.60138160592957723427e-01  1.19566570293438978467e-04
2.20000000000000001110e-01  8.00000000000000044409e-01  3.74548617870424260801e-01  1.19802761284149017484e-04
2.30000000000000009992e-01  8.00000000000000044409e-01  3.88589440881776992942e-01  1.19920721491806325787e-04
2.39999999999999991118e-01  8.00000000000000044409e-01  4.02246773029968085478e-01  1.19920334408551987337e-04
2.50000000000000000000e-01  8.00000000000000044409e-01  4.15507136177063585158e-01  1.19801600389879414621e-04
2.60000000000000008882e-01  8.00000000000000044409e-01  4.28357443945481308756e-01  1.19564636711033678296e-04
2.70000000000000017764e-01  8.00000000000000044409e-01  4.40785014632962490744e-01  1.19209677154175075486e-04
2.80000000000000026645e-01  8.00000000000000044409e-01  4.52777583727595078766e-01  1.18737072063890281015e-04
2.89999999999999980016e-01  8.00000000000000044409e-01  4.64323316011649056545e-01  1.18147287758385566292e-04
2.99999999999999988898e-01  8.00000000000000044409e-01  4.75410817241222471985e-01  1.17440906354404628331e-04
3.09999999999999997780e-01  8.00000000000000044409e-01  4.86029145391119021813e-01  1.16618625057962610470e-04
3.20000000000000006661e-01  8.00000000000000044409e-01  4.96167821453677437837e-01  1.15681255105026803420e-04
3.30000000000000015543e-01  8.00000000000000044409e-01  5.05816839779432814161e-01  1.14629721814973883909e-04
3.40000000000000024425e-01  8.00000000000000044409e-01  5.14966677952375162519e-01  1.13465062786866077715e-04
3.49999999999999977796e-01  8.00000000000000044409e-01  5.23608306186791883086e-01  1.12188427507597943134e-04
3.59999999999999986677e-01  8.00000000000000044409e-01  5.31733196239118632853e-01  1.10801075675626137240e-04
3.69999999999999995559e-01  8.00000000000000044409e-01  5.39333329823613705223e-01  1.09304376629482113970e-04
3.80000000000000004441e-01  8.00000000000000044409e-01  5.46401206526068272673e-01  1.07699807366690158972e-04
3.90000000000000013323e-01  8.00000000000000044409e-01  5.52929851205467337572e-01  1.05988951428326316773e-04
4.00000000000000022204e-01  8.00000000000000044409e-01  5.58912820877795479824e-01  1.04173497152082461525e-04
4.09999999999999975575e-01  8.00000000000000044409e-01  5.64344211074318757859e-01  1.02255236172132946137e-04
4.19999999999999984457e-01  8.00000000000000044409e-01  5.69218661668545511390e-01  1.00236061688185884577e-04
4.29999999999999993339e-01  8.00000000000000044409e-01  5.73531362166267211222e-01  9.81179663529507806174e-05
4.40000000000000002220e-01  8.00000000000000044409e-01  5.77278056452977694768e-01  9.59030402644112101029e-05
4.50000000000000011102e-01  8.00000000000000044409e-01  5.80455046993427314916e-01  9.35934696200124705001e-05
4.60000000000000019984e-01  8.00000000000000044409e-01  5.83059198481853835361e-01  9.11915333482449241842e-05
4.69999999999999973355e-01  8.00000000000000044409e-01  5.85087940934757022582e-01  8.86996022546604478975e-05
4.79999999999999982236e-01  8.00000000000000044409e-01  5.86539272228607022619e-01  8.61201352362339633828e-05
4.89999999999999991118e-01  8.00000000000000044409e-01  5.87411760074526667630e-01  8.34556780270334641614e-05
5.00000000000000000000e-01  8.00000000000000044409e-01  5.87704543432268522452e-01  8.07088602047256742367e-05
5.10000000000000008882e-01  8.00000000000000044409e-01  5.87417333360173654633e-01  7.78823923800464612555e-05
5.20000000000000017764e-01  8.00000000000000044409e-01  5.86550413299663397915e-01  7.49790641798586676714e-05
5.30000000000000026645e-01  8.00000000000000044409e-01  5.85104638796401399503e-01  7.20017406102835266779e-05
5.40000000000000035527e-01  8.00000000000000044409e-01  5.83081436655201623687e-01  6.89533600004565982999e-05
5.50000000000000044409e-01  8.00000000000000044409e-01  5.80482803532269775459e-01  6.58369307774409051603e-05
5.60000000000000053291e-01  8.00000000000000044409e-01  5.77311303964723077087e-01  6.26555285190288913100e-05
5.69999999999999951150e-01  8.00000000000000044409e-01  5.73570067839880626259e-01  5.94122927395357436353e-05
5.79999999999999960032e-01  8.00000000000000044409e-01  5.69262787306055617620e-01  5.61104241780796542116e-05
5.89999999999999968914e-01  8.00000000000000044409e-01  5.64393713129111684879e-01  5.27531813793169490623e-05
5.99999999999999977796e-01  8.00000000000000044409e-01  5.58967650497179890934e-01  4.93438777676713513642e-05
6.09999999999999986677e-01  8.00000000000000044409e-01  5.52989954279601181319e-01  4.58858772944825688000e-05
6.19999999999999995559e-01  8.00000000000000044409e-01  5.46466523739894682876e-01  4.23825935402799558460e-05
6.30000000000000004441e-01  8.00000000000000044409e-01  5.39403796717357941759e-01  3.88374828853566000930e-05
6.40000000000000013323e-01  8.00000000000000044409e-01  5.31808743270368200484e-01  3.52540444259474838873e-05
6.50000000000000022204e-01  8.00000000000000044409e-01  5.23688858799802425814e-01  3.16358144970552146447e-05
6.60000000000000031086e-01  8.00000000000000044409e-01  5.15052156651296111356e-01  2.79863638658062185982e-05
6.70000000000000039968e-01  8.00000000000000044409e-01  5.05907160207203832059e-01  2.43092940439559868082e-05
6.80000000000000048850e-01  8.00000000000000044409e-01  4.96262894474818305746e-01  2.06082339641033840394e-05
6.89999999999999946709e-01  8.00000000000000044409e-01  4.86128877180499741062e-01  1.68868356773543837335e-05
6.99999999999999955591e-01  8.00000000000000044409e-01  4.75515109374853195412e-01  1.31487727236812013132e-05
7.09999999999999964473e-01  8.00000000000000044409e-01  4.64432065566359963960e-01  9.39773304758917404911e-06
7.19999999999999973355e-01  8.00000000000000044409e-01  4.52890683380493652699e-01  5.63741916531634856824e-06
7.29999999999999982236e-01  8.00000000000000044409e-01  4.40902352768401450955e-01  1.87154171527037505030e-06
7.39999999999999991118e-01  8.00000000000000044409e-01  4.28478904764911683323e-01  1.89618271945191096961e-06
7.50000000000000000000e-01  8.00000000000000044409e-01  4.15632599813182956883e-01  5.66203572943679844798e-06
7.60000000000000008882e-01  8.00000000000000044409e-01  4.02376115665499078933e-01  9.42230112227493421528e-06
7.70000000000000017764e-01  8.00000000000000044409e-01  3.88722534870991676126e-01  1.31732677228768579880e-05
7.80000000000000026645e-01  8.00000000000000044409e-01  3.74685331865772686122e-01  1.69112340641097702587e-05
7.90000000000000035527e-01  8.00000000000000044409e-01  3.60278359674071790852e-01  2.06325108206284468793e-05
8.00000000000000044409e-01  8.00000000000000044409e-01  3.45515836238499629562e-01  2.43334259731886604072e-05
8.10000000000000053291e-01  8.00000000000000044409e-01  3.30412330387024832934e-01  2.80103268047726672307e-05
8.19999999999999951150e-01  8.00000000000000044409e-01  3.14982747456867828717e-01  3.16595850707312997940e-05
8.29999999999999960032e-01  8.00000000000000044409e-01  2.99242314583075486034e-01  3.52775989256315369857e-05
8.39999999999999968914e-01  8.00000000000000044409e-01  2.83206565672887544682e-01  3.88607981847144401399e-05
8.49999999999999977796e-01  8.00000000000000044409e-01  2.66891326074258694590e-01  4.24056464631283880351e-05
8.59999999999999986677e-01  8.00000000000000044409e-01  2.50312696959016367515e-01  4.59086455295021345080e-05
8.69999999999999995559e-01  8.00000000000000044409e-01  2.33487039432406479067e-01  4.93663382183651133772e-05
8.80000000000000004441e-01  8.00000000000000044409e-01  2.16430958387230587547e-01  5.27753124131835615884e-05
8.90000000000000013323e-01  8.00000000000000044409e-01  1.99161286116061791995e-01  5.61322036555511605371e-05
9.00000000000000022204e-01  8.00000000000000044409e-01  1.81695065700549857057e-01  5.94336992095489957677e-05
9.10000000000000031086e-01  8.00000000000000044409e-01  1.64049534191504253755e-01  6.26765408798246603794e-05
9.20000000000000039968e-01  8.00000000000000044409e-01  1.46242105598176436176e-01  6.58575283955520340839e-05
9.30000000000000048850e-01  8.00000000000000044409e-01  1.28290353702605497421e-01  6.89735224409793179490e-05
9.39999999999999946709e-01  8.00000000000000044409e-01  1.10211994716706507269e-01  7.20214480408321033877e-05
9.49999999999999955591e-01  8.00000000000000044409e-01  9.20248697979335478214e-02  7.49982970233015189265e-05
9.59999999999999964473e-01  8.00000000000000044409e-01  7.37469274430724575087e-02  7.79011318462335955459e-05
9.69999999999999973355e-01  8.00000000000000044409e-01  5.53962057743682678712e-02  8.07270876261867442736e-05
9.79999999999999982236e-01  8.00000000000000044409e-01  3.69908147386329433370e-02  8.34733755198935334363e-05
9.89999999999999991118e-01  8.00000000000000044409e-01  1.85054354935577890229e-02  4.26545441220907428637e-05
1.00000000000000000000e+00  8.00000000000000044409e-01  0.00000000000000000000e+00  7.19829327805996755601e-17
0.00000000000000000000e+00  8.10000000000000053291e-01  0.00000000000000000000e+00  0.00000000000000000000e+00
1.00000000000000002082e-02  8.10000000000000053291e-01  1.76068426323537710609e-02  4.86229311800513708253e-05
2.00000000000000004163e-02  8.10000000000000053291e-01  3.51981431021322135888e-02  9.53642119944156374522e-05
2.99999999999999988898e-02  8.10000000000000053291e-01  5.27991608698352987705e-02  9.75577642018665702750e-05
4.00000000000000008327e-02  8.10000000000000053291e-01  7.03480722402755748179e-02  9.96550386785782782439e-05
5.00000000000000027756e-02  8.10000000000000053291e-01  8.78275585566456878928e-02  1.01653965658296541186e-04
5.99999999999999977796e-02  8.10000000000000053291e-01  1.05220369676264940972e-01  1.03552572451828805988e-04
7.00000000000000066613e-02  8.10000000000000053291e-01  1.22509340994429893890e-01  1.05348985351444435210e-04
8.00000000000000016653e-02  8.10000000000000053291e-01  1.39677410383756556156e-01  1.07041431530202624245e-04
8.99999999999999966693e-02  8.10000000000000053291e-01  1.56707635032494907446e-01  1.08628240737013159745e-04
1.00000000000000005551e-01  8.10000000000000053291e-01  1.73583208165008384682e-01  1.10107846974849543642e-04
1.10000000000000000555e-01  8.10000000000000053291e-01  1.90287475628004937311e-01  1.11478790074004407984e-04
1.19999999999999995559e-01  8.10000000000000053291e-01  2.06803952326237328041e-01  1.12739717071014267091e-04
1.30000000000000004441e-01  8.10000000000000053291e-01  2.23116338491290172596e-01  1.13889383555804135639e-04
1.40000000000000013323e-01  8.10000000000000053291e-01  2.39208535767385571669e-01  1.14926654997626886967e-04
1.49999999999999994449e-01  8.10000000000000053291e-01  2.55064663098714061729e-01  1.15850507667158986180e-04
1.60000000000000003331e-01  8.10000000000000053291e-01  2.70669072401846400044e-01  1.16660029920168106798e-04
1.70000000000000012212e-01  8.10000000000000053291e-01  2.86006364008840219260e-01  1.17354422759174958912e-04
1.79999999999999993339e-01  8.10000000000000053291e-01  3.01061401864475719492e-01  1.17933000999714820978e-04
1.90000000000000002220e-01  8.10000000000000053291e-01  3.15819328464109039256e-01  1.18395193551890098860e-04
2.00000000000000011102e-01  8.10000000000000053291e-01  3.30265579515789553522e-01  1.18740544430451233637e-04
2.09999999999999992228e-01  8.10000000000000053291e-01  3.44385898314046312585e-01  1.18968712615630245466e-04
2.20000000000000001110e-01  8.10000000000000053291e-01  3.58166349808774653329e-01  1.19079473150596193420e-04
2.30000000000000009992e-01  8.10000000000000053291e-01  3.71593334358288007735e-01  1.19072716523394017685e-04
2.39999999999999991118e-01  8.10000000000000053291e-01  3.84653601149720081320e-01  1.18948449577382930897e-04
2.50000000000000000000e-01  8.10000000000000053291e-01  3.97334261276645783756e-01  1.18706794836109796876e-04
2.60000000000000008882e-01  8.10000000000000053291e-01  4.09622800458410929458e-01  1.18347990847256223645e-04
2.70000000000000017764e-01  8.10000000000000053291e-01  4.21507091390527555141e-01  1.17872391635798212661e-04
2.80000000000000026645e-01  8.10000000000000053291e-01  4.32975405712595906582e-01  1.17280466618407963608e-04
2.89999999999999980016e-01  8.10000000000000053291e-01  4.44016425582932638960e-01  1.16572799987335606886e-04
2.99999999999999988898e-01  8.10000000000000053291e-01  4.54619254848009524128e-01  1.15750090039001829467e-04
3.09999999999999997780e-01  8.10000000000000053291e-01  4.64773429795500292450e-01  1.14813148625325656127e-04
3.20000000000000006661e-01  8.10000000000000053291e-01  4.74468929480296730539e-01  1.13762900757874430013e-04
3.30000000000000015543e-01  8.10000000000000053291e-01  4.83696185615319407258e-01  1.12600382346950134149e-04
3.40000000000000024425e-01  8.10000000000000053291e-01  4.92446092012271685601e-01  1.11326741169370801998e-04
3.49999999999999977796e-01  8.10000000000000053291e-01  5.00710013570329182109e-01  1.09943233754572489147e-04
3.59999999999999986677e-01  8.10000000000000053291e-01  5.08479794796206419072e-01  1.08451225880767943011e-04
3.69999999999999995559e-01  8.10000000000000053291e-01  5.15747767854354610684e-01  1.06852189515116435814e-04
3.80000000000000004441e-01  8.10000000000000053291e-01  5.22506760132549596953e-01  1.05147703002406167627e-04
3.90000000000000013323e-01  8.10000000000000053291e-01  5.28750101321387555586e-01  1.03339448513373177718e-04
4.00000000000000022204e-01  8.10000000000000053291e-01  5.34471629997101738141e-01  1.01429210357939503240e-04
4.09999999999999975575e-01  8.10000000000000053291e-01  5.39665699701475931604e-01  9.94188738921986114860e-05
4.19999999999999984457e-01  8.10000000000000053291e-01  5.44327184515001616383e-01  9.73104228736421106305e-05
4.29999999999999993339e-01  8.10000000000000053291e-01  5.48451484114803489156e-01  9.51059382411356679654e-05
4.40000000000000002220e-01  8.10000000000000053291e-01  5.52034528314956252082e-01  9.28075957076224256070e-05
4.50000000000000011102e-01  8.10000000000000053291e-01  5.55072781083837618610e-01  9.04176630429631700281e-05
4.60000000000000019984e-01  8.10000000000000053291e-01  5.57563244032308502618e-01  8.79384992907850104871e-05
4.69999999999999973355e-01  8.10000000000000053291e-01  5.59503459374626754830e-01  8.53725505756131042290e-05
4.79999999999999982236e-01  8.10000000000000053291e-01  5.60891512351881948995e-01  8.27223497917861649853e-05
4.89999999999999991118e-01  8.10000000000000053291e-01  5.61726033123993273577e-01  7.99905117414567712331e-05
5.00000000000000000000e-01  8.10000000000000053291e-01  5.62006198119309519079e-01  7.71797328209533617382e-05
5.10000000000000008882e-01  8.10000000000000053291e-01  5.61731730848774257758e-01  7.42927869604725898967e-05
5.20000000000000017764e-01  8.10000000000000053291e-01  5.60902902178870510497e-01  7.13325228032246627663e-05
5.30000000000000026645e-01  8.10000000000000053291e-01  5.59520530062805776517e-01  6.83018623965914173368e-05
5.40000000000000035527e-01  8.10000000000000053291e-01  5.57585978735594012257e-01  6.52037960051643494808e-05
5.50000000000000044409e-01  8.10000000000000053291e-01  5.55101157365420205814e-01  6.20413814602649438257e-05
5.60000000000000053291e-01  8.10000000000000053291e-01  5.52068518171042632581e-01  5.88177396212419267840e-05
5.69999999999999951150e-01  8.10000000000000053291e-01  5.48491054001382760674e-01  5.55360516618641497644e-05
5.79999999999999960032e-01  8.10000000000000053291e-01  5.44372295381464477160e-01  5.21995564108923559843e-05
5.89999999999999968914e-01  8.10000000000000053291e-01  5.39716307028956898684e-01  4.88115464113425545634e-05
5.99999999999999977796e-01  8.10000000000000053291e-01  5.34527683842074941012e-01  4.53753653847366322793e-05
6.09999999999999986677e-01  8.10000000000000053291e-01  5.28811546365495654953e-01  4.18944044052738107098e-05
6.19999999999999995559e-01  8.10000000000000053291e-01  5.22573535737152150560e-01  3.83720983998525611014e-05
6.30000000000000004441e-01  8.10000000000000053291e-01  5.15819808119758582698e-01  3.48119241112554433926e-05
6.40000000000000013323e-01  8.10000000000000053291e-01  5.08557028627476426230e-01  3.12173946106497623987e-05
6.50000000000000022204e-01  8.10000000000000053291e-01  5.00792364746858176261e-01  2.75920572256893592566e-05
6.60000000000000031086e-01  8.10000000000000053291e-01  4.92533479263629114797e-01  2.39394898117750720701e-05
6.70000000000000039968e-01  8.10000000000000053291e-01  4.83788522700682011024e-01  2.02632969843463683901e-05
6.80000000000000048850e-01  8.10000000000000053291e-01  4.74566125274160199865e-01  1.65671068943495924941e-05
6.89999999999999946709e-01  8.10000000000000053291e-01  4.64875388377264664452e-01  1.28545668610646757202e-05
6.99999999999999955591e-01  8.10000000000000053291e-01  4.54725875597108697423e-01  9.12934093982853411831e-06
7.09999999999999964473e-01  8.10000000000000053291e-01  4.44127603277283622418e-01  5.39510563646317109487e-06
7.19999999999999973355e-01  8.10000000000000053291e-01  4.33091030633515394754e-01  1.65554569891979141971e-06
7.29999999999999982236e-01  8.10000000000000053291e-01  4.21627049429818101522e-01  2.08564765469265722686e-06
7.39999999999999991118e-01  8.10000000000000053291e-01  4.09746973232196831649e-01  5.82478293870147822986e-06
7.50000000000000000000e-01  8.10000000000000053291e-01  3.97462526241425584406e-01  9.55816994363534178092e-06
7.60000000000000008882e-01  8.10000000000000053291e-01  3.84785831723297833129e-01  1.32821240002578555561e-05
7.70000000000000017764e-01  8.10000000000000053291e-01  3.71729400045154811938e-01  1.69929703434101853077e-05
7.80000000000000026645e-01  8.10000000000000053291e-01  3.58306116328429458129e-01  2.06870465040975837212e-05
7.90000000000000035527e-01  8.10000000000000053291e-01  3.44529227733998799632e-01  2.43607073368568016747e-05
8.00000000000000044409e-01  8.10000000000000053291e-01  3.30412330387024888445e-01  2.80103268048281783820e-05
8.10000000000000053291e-01  8.10000000000000053291e-01  3.15969355961337794447e-01  3.16323036769206034080e-05
8.19999999999999951150e-01  8.10000000000000053291e-01  3.01214557928691839539e-01  3.52230632162386925188e-05
8.29999999999999960032e-01  8.10000000000000053291e-01  2.86162497493355927336e-01  3.87790617564776063375e-05
8.39999999999999968914e-01  8.10000000000000053291e-01  2.70828029221920785208e-01  4.22967901540505231139e-05
8.49999999999999977796e-01  8.10000000000000053291e-01  2.55226286383073375230e-01  4.57727766920990042365e-05
8.59999999999999986677e-01  8.10000000000000053291e-01  2.39372666013392992879e-01  4.92035910097110562589e-05
8.69999999999999995559e-01  8.10000000000000053291e-01  2.23282813722240847110e-01  5.25858473948703775136e-05
8.80000000000000004441e-01  8.10000000000000053291e-01  2.06972608251056650053e-01  5.59162077481967223491e-05
8.90000000000000013323e-01  8.10000000000000053291e-01  1.90458145803789502537e-01  5.91913857105885732324e-05
9.00000000000000022204e-01  8.10000000000000053291e-01  1.73755724160792712762e-01  6.24081488094230252273e-05
9.10000000000000031086e-01  8.10000000000000053291e-01  1.56881826595869439123e-01  6.55633226376295397131e-05
9.20000000000000039968e-01  8.10000000000000053291e-01  1.39853105608709282759e-01  6.86537934224962231866e-05
9.30000000000000048850e-01  8.10000000000000053291e-01  1.22686366490924889106e-01  7.16765111436895585584e-05
9.39999999999999946709e-01  8.10000000000000053291e-01  1.05398550741562124777e-01  7.46284928451190765486e-05
9.49999999999999955591e-01  8.10000000000000053291e-01  8.80067193475320280749e-02  7.75068252279881297895e-05
9.59999999999999964473e-01  8.10000000000000053291e-01  7.05280359466571443727e-02  8.03086677028386208832e-05
9.69999999999999973355e-01  8.10000000000000053291e-01  5.29797498892781021373e-02  8.30312552409159798650e-05
9.79999999999999982236e-01  8.10000000000000053291e-01  3.53791792150767378522e-02  8.56719009499906647420e-05
9.89999999999999991118e-01  8.10000000000000053291e-01  1.76992399467245133116e-02  4.37743831907221048194e-05
1.00000000000000000000e+00  8.10000000000000053291e-01  0.00000000000000000000e+00  6.88353609540543914606e-17
0.00000000000000000000e+00  8.19999999999999951150e-01  0.00000000000000000000e+00  0.00000000000000000000e+00
1.00000000000000002082e-02  8.19999999999999951150e-01  1.67812532845393047598e-02  4.94730801516123086525e-05
2.00000000000000004163e-02  8.19999999999999951150e-01  3.35478174014728902641e-02  9.70254329852107688659e-05
2.99999999999999988898e-02  8.19999999999999951150e-01  5.03266544926956049810e-02  9.91014136431725423115e-05
4.00000000000000008327e-02  8.19999999999999951150e-01  6.70558252519461439611e-02  1.01079593169059456237e-04
5.00000000000000027756e-02  8.19999999999999951150e-01  8.37188200074186483768e-02  1.02958019342208606517e-04
5.99999999999999977796e-02  8.19999999999999951150e-01  1.00299194395041924022e-01  1.04734838378070516107e-04
7.00000000000000066613e-02  8.19999999999999951150e-01  1.16780585587059865249e-01  1.06408296779200717275e-04
8.00000000000000016653e-02  8.19999999999999951150e-01  1.33146728440210082578e-01  1.07976743022458743226e-04
8.99999999999999966693e-02  8.19999999999999951150e-01  1.49381471547368777086e-01  1.09438629276925603051e-04
1.00000000000000005551e-01  8.19999999999999951150e-01  1.65468793177167089459e-01  1.10792512803714604530e-04
1.10000000000000000555e-01  8.19999999999999951150e-01  1.81392817085378965647e-01  1.12037057506619852632e-04
1.19999999999999995559e-01  8.19999999999999951150e-01  1.97137828182967156376e-01  1.13171035140746667480e-04
1.30000000000000004441e-01  8.19999999999999951150e-01  2.12688288044844769908e-01  1.14193326658934557472e-04
1.40000000000000013323e-01  8.19999999999999951150e-01  2.28028850244635900024e-01  1.15102923104903887008e-04
1.49999999999999994449e-01  8.19999999999999951150e-01  2.43144375499435572152e-01  1.15898926918933664609e-04
1.60000000000000003331e-01  8.19999999999999951150e-01  2.58019946610851536040e-01  1.16580552426803762955e-04
1.70000000000000012212e-01  8.19999999999999951150e-01  2.72640883186058224918e-01  1.17147127034367137810e-04
1.79999999999999993339e-01  8.19999999999999951150e-01  2.86992756125884374008e-01  1.17598091579518282401e-04
1.90000000000000002220e-01  8.19999999999999951150e-01  3.01061401864475441936e-01  1.17933001000214421339e-04
2.00000000000000011102e-01  8.19999999999999951150e-01  3.14832936347022251944e-01  1.18151524774789962180e-04
2.09999999999999992228e-01  8.19999999999999951150e-01  3.28293768731602098043e-01  1.18253447292382407596e-04
2.20000000000000001110e-01  8.19999999999999951150e-01  3.41430614801914278367e-01  1.18238667851100487383e-04
2.30000000000000009992e-01  8.19999999999999951150e-01  3.54230510076707583167e-01  1.18107201246886450718e-04
2.39999999999999991118e-01  8.19999999999999951150e-01  3.66680822604946388132e-01  1.17859176970769308213e-04
2.50000000000000000000e-01  8.19999999999999951150e-01  3.78769265431121160415e-01  1.17494839981469034740e-04
2.60000000000000008882e-01  8.19999999999999951150e-01  3.90483908721701467037e-01  1.17014549752048058195e-04
2.70000000000000017764e-01  8.19999999999999951150e-01  4.01813191538035296979e-01  1.16418780321092540930e-04
2.80000000000000026645e-01  8.19999999999999951150e-01  4.12745933245866003514e-01  1.15708119558965982776e-04
2.89999999999999980016e-01  8.19999999999999951150e-01  4.23271344548984018719e-01  1.14883268871823762680e-04
2.99999999999999988898e-01  8.19999999999999951150e-01  4.33379038137185257362e-01  1.13945042284069320004e-04
3.09999999999999997780e-01  8.19999999999999951150e-01  4.43059038937161753235e-01  1.12894365765003890090e-04
3.20000000000000006661e-01  8.19999999999999951150e-01  4.52301793957130215951e-01  1.11732275879850018185e-04
3.30000000000000015543e-01  8.19999999999999951150e-01  4.61098181713197496912e-01  1.10459920050931525992e-04
3.40000000000000024425e-01  8.19999999999999951150e-01  4.69439521233178613802e-01  1.09078553410246748001e-04
3.49999999999999977796e-01  8.19999999999999951150e-01  4.77317580621750170433e-01  1.07589539479091556018e-04
3.59999999999999986677e-01  8.19999999999999951150e-01  4.84724585185560885581e-01  1.05994347599114302483e-04
3.69999999999999995559e-01  8.19999999999999951150e-01  4.91653225105115887494e-01  1.04294552280781438469e-04
3.80000000000000004441e-01  8.19999999999999951150e-01  4.98096662649742116802e-01  1.02491830594242383512e-04
3.90000000000000013323e-01  8.19999999999999951150e-01  5.04048538924068423306e-01  1.00587962048370727075e-04
4.00000000000000022204e-01  8.19999999999999951150e-01  5.09502980145204675821e-01  9.85848251177090517672e-05
4.09999999999999975575e-01  8.19999999999999951150e-01  5.14454603437819013578e-01  9.64843970256978877842e-05
4.19999999999999984457e-01  8.19999999999999951150e-01  5.18898522147651086733e-01  9.42887505287481886285e-05
4.29999999999999993339e-01  8.19999999999999951150e-01  5.22830350663712306591e-01  9.20000522074415627571e-05
4.40000000000000002220e-01  8.19999999999999951150e-01  5.26246208745604571178e-01  8.96205610790845597080e-05
4.50000000000000011102e-01  8.19999999999999951150e-01  5.29142725353961340673e-01  8.71526252552712321631e-05
4.60000000000000019984e-01  8.19999999999999951150e-01  5.31517041976618420662e-01  8.45986802631149004128e-05
4.69999999999999973355e-01  8.19999999999999951150e-01  5.33366815449451969755e-01  8.19612468100361368784e-05
4.79999999999999982236e-01  8.19999999999999951150e-01  5.34690220270006011383e-01  7.92429270886074732516e-05
4.89999999999999991118e-01  8.19999999999999951150e-01  5.35485950396675458585e-01  7.64464045759360999455e-05
5.00000000000000000000e-01  8.19999999999999951150e-01  5.35753220540501007285e-01  7.35744384959824415660e-05
5.10000000000000008882e-01  8.19999999999999951150e-01  5.35491766938007041077e-01  7.06298632443536078540e-05
5.20000000000000017764e-01  8.19999999999999951150e-01  5.34701847611925185078e-01  6.76155851694337783897e-05
5.30000000000000026645e-01  8.19999999999999951150e-01  5.33384242118060902804e-01  6.45345782011030877356e-05
5.40000000000000035527e-01  8.19999999999999951150e-01  5.31540250773052225242e-01  6.13898838293103210617e-05
5.50000000000000044409e-01  8.19999999999999951150e-01  5.29171693374347773542e-01  5.81846048688383632452e-05
5.60000000000000053291e-01  8.19999999999999951150e-01  5.26280907402035258436e-01  5.49219046483973016848e-05
5.69999999999999951150e-01  8.19999999999999951150e-01  5.22870745712641249447e-01  5.16050032786097290227e-05
5.79999999999999960032e-01  8.19999999999999951150e-01  5.18944573724215207911e-01  4.82371739646270114577e-05
5.89999999999999968914e-01  8.19999999999999951150e-01  5.14506266094536313105e-01  4.48217403083983612078e-05
5.99999999999999977796e-01  8.19999999999999951150e-01  5.09560202897191727445e-01  4.13620731306574285213e-05
6.09999999999999986677e-01  8.19999999999999951150e-01  5.04111265299703625864e-01  3.78615864131681689742e-05
6.19999999999999995559e-01  8.19999999999999951150e-01  4.98164830745129572076e-01  3.43237352067871093197e-05
6.30000000000000004441e-01  8.19999999999999951150e-01  4.91726767647188700572e-01  3.07520102080238721953e-05
6.40000000000000013323e-01  8.19999999999999951150e-01  4.84803429596286750147e-01  2.71499368731942247734e-05
6.50000000000000022204e-01  8.19999999999999951150e-01  4.77401649091356572452e-01  2.35210698727450484569e-05
6.60000000000000031086e-01  8.19999999999999951150e-01  4.69528730796129722957e-01  1.98689904590265697948e-05