Titile = 'Poisson'  
VARIABLES = X, Y, U, Error, Rank 
zone N= 1936, E = 3600
DATAPACKING=POINT, ZONETYPE=FETRIANGLE
0.00000000000000000000e+00  0.00000000000000000000e+00  0.00000000000000000000e+00  0.00000000000000000000e+00 0
8.33333333333333321769e-03  0.00000000000000000000e+00  0.00000000000000000000e+00  0.00000000000000000000e+00 0
1.66666666666666664354e-02  0.00000000000000000000e+00  0.00000000000000000000e+00  0.00000000000000000000e+00 0
2.50000000000000013878e-02  0.00000000000000000000e+00  0.00000000000000000000e+00  0.00000000000000000000e+00 0
3.33333333333333328707e-02  0.00000000000000000000e+00  0.00000000000000000000e+00  0.00000000000000000000e+00 0
4.16666666666666643537e-02  0.00000000000000000000e+00  0.00000000000000000000e+00  0.00000000000000000000e+00 0
5.00000000000000027756e-02  0.00000000000000000000e+00  0.00000000000000000000e+00  0.00000000000000000000e+00 0
5.83333333333333342585e-02  0.00000000000000000000e+00  0.00000000000000000000e+00  0.00000000000000000000e+00 0
6.66666666666666657415e-02  0.00000000000000000000e+00  0.00000000000000000000e+00  0.00000000000000000000e+00 0
7.49999999999999972244e-02  0.00000000000000000000e+00  0.00000000000000000000e+00  0.00000000000000000000e+00 0
8.33333333333333287074e-02  0.00000000000000000000e+00  0.00000000000000000000e+00  0.00000000000000000000e+00 0
9.16666666666666601904e-02  0.00000000000000000000e+00  0.00000000000000000000e+00  0.00000000000000000000e+00 0
1.00000000000000005551e-01  0.00000000000000000000e+00  0.00000000000000000000e+00  0.00000000000000000000e+00 0
1.08333333333333337034e-01  0.00000000000000000000e+00  0.00000000000000000000e+00  0.00000000000000000000e+00 0
1.16666666666666668517e-01  0.00000000000000000000e+00  0.00000000000000000000e+00  0.00000000000000000000e+00 0
1.25000000000000000000e-01  0.00000000000000000000e+00  0.00000000000000000000e+00  0.00000000000000000000e+00 0
1.33333333333333331483e-01  0.00000000000000000000e+00  0.00000000000000000000e+00  0.00000000000000000000e+00 0
1.41666666666666662966e-01  0.00000000000000000000e+00  0.00000000000000000000e+00  0.00000000000000000000e+00 0
1.49999999999999994449e-01  0.00000000000000000000e+00  0.00000000000000000000e+00  0.00000000000000000000e+00 0
1.58333333333333325932e-01  0.00000000000000000000e+00  0.00000000000000000000e+00  0.00000000000000000000e+00 0
1.66666666666666657415e-01  0.00000000000000000000e+00  0.00000000000000000000e+00  0.00000000000000000000e+00 0
1.74999999999999988898e-01  0.00000000000000000000e+00  0.00000000000000000000e+00  0.00000000000000000000e+00 0
1.83333333333333320381e-01  0.00000000000000000000e+00  0.00000000000000000000e+00  0.00000000000000000000e+00 0
1.91666666666666679619e-01  0.00000000000000000000e+00  0.00000000000000000000e+00  0.00000000000000000000e+00 0
2.00000000000000011102e-01  0.00000000000000000000e+00  0.00000000000000000000e+00  0.00000000000000000000e+00 0
2.08333333333333342585e-01  0.00000000000000000000e+00  0.00000000000000000000e+00  0.00000000000000000000e+00 0
2.16666666666666674068e-01  0.00000000000000000000e+00  0.00000000000000000000e+00  0.00000000000000000000e+00 0
2.25000000000000005551e-01  0.00000000000000000000e+00  0.00000000000000000000e+00  0.00000000000000000000e+00 0
2.33333333333333337034e-01  0.00000000000000000000e+00  0.00000000000000000000e+00  0.00000000000000000000e+00 0
2.41666666666666668517e-01  0.00000000000000000000e+00  0.00000000000000000000e+00  0.00000000000000000000e+00 0
2.50000000000000000000e-01  0.00000000000000000000e+00  0.00000000000000000000e+00  0.00000000000000000000e+00 0
2.58333333333333359239e-01  0.00000000000000000000e+00  0.00000000000000000000e+00  0.00000000000000000000e+00 0
2.66666666666666662966e-01  0.00000000000000000000e+00  0.00000000000000000000e+00  0.00000000000000000000e+00 0
2.75000000000000022204e-01  0.00000000000000000000e+00  0.00000000000000000000e+00  0.00000000000000000000e+00 0
2.83333333333333325932e-01  0.00000000000000000000e+00  0.00000000000000000000e+00  0.00000000000000000000e+00 0
2.91666666666666685170e-01  0.00000000000000000000e+00  0.00000000000000000000e+00  0.00000000000000000000e+00 0
2.99999999999999988898e-01  0.00000000000000000000e+00  0.00000000000000000000e+00  0.00000000000000000000e+00 0
3.08333333333333348136e-01  0.00000000000000000000e+00  0.00000000000000000000e+00  0.00000000000000000000e+00 0
3.16666666666666651864e-01  0.00000000000000000000e+00  0.00000000000000000000e+00  0.00000000000000000000e+00 0
3.25000000000000011102e-01  0.00000000000000000000e+00  0.00000000000000000000e+00  0.00000000000000000000e+00 0
3.33333333333333314830e-01  0.00000000000000000000e+00  0.00000000000000000000e+00  0.00000000000000000000e+00 0
3.41666666666666674068e-01  0.00000000000000000000e+00  0.00000000000000000000e+00  0.00000000000000000000e+00 0
3.49999999999999977796e-01  0.00000000000000000000e+00  0.00000000000000000000e+00  0.00000000000000000000e+00 0
3.58333333333333337034e-01  0.00000000000000000000e+00  0.00000000000000000000e+00  0.00000000000000000000e+00 0
3.66666666666666640761e-01  0.00000000000000000000e+00  0.00000000000000000000e+00  0.00000000000000000000e+00 0
3.75000000000000000000e-01  0.00000000000000000000e+00  0.00000000000000000000e+00  0.00000000000000000000e+00 0
3.83333333333333359239e-01  0.00000000000000000000e+00  0.00000000000000000000e+00  0.00000000000000000000e+00 0
3.91666666666666662966e-01  0.00000000000000000000e+00  0.00000000000000000000e+00  0.00000000000000000000e+00 0
4.00000000000000022204e-01  0.00000000000000000000e+00  0.00000000000000000000e+00  0.00000000000000000000e+00 0
4.08333333333333325932e-01  0.00000000000000000000e+00  0.00000000000000000000e+00  0.00000000000000000000e+00 0
4.16666666666666685170e-01  0.00000000000000000000e+00  0.00000000000000000000e+00  0.00000000000000000000e+00 0
4.24999999999999988898e-01  0.00000000000000000000e+00  0.00000000000000000000e+00  0.00000000000000000000e+00 0
4.33333333333333348136e-01  0.00000000000000000000e+00  0.00000000000000000000e+00  0.00000000000000000000e+00 0
4.41666666666666651864e-01  0.00000000000000000000e+00  0.00000000000000000000e+00  0.00000000000000000000e+00 0
4.50000000000000011102e-01  0.00000000000000000000e+00  0.00000000000000000000e+00  0.00000000000000000000e+00 0
4.58333333333333314830e-01  0.00000000000000000000e+00  0.00000000000000000000e+00  0.00000000000000000000e+00 0
4.66666666666666674068e-01  0.00000000000000000000e+00  0.00000000000000000000e+00  0.00000000000000000000e+00 0
4.74999999999999977796e-01  0.00000000000000000000e+00  0.00000000000000000000e+00  0.00000000000000000000e+00 0
4.83333333333333337034e-01  0.00000000000000000000e+00  0.00000000000000000000e+00  0.00000000000000000000e+00 0
4.91666666666666640761e-01  0.00000000000000000000e+00  0.00000000000000000000e+00  0.00000000000000000000e+00 0
5.00000000000000000000e-01  0.00000000000000000000e+00  0.00000000000000000000e+00  0.00000000000000000000e+00 0
5.08333333333333303727e-01  0.00000000000000000000e+00  0.00000000000000000000e+00  0.00000000000000000000e+00 0
5.16666666666666718477e-01  0.00000000000000000000e+00  0.00000000000000000000e+00  0.00000000000000000000e+00 0
5.25000000000000022204e-01  0.00000000000000000000e+00  0.00000000000000000000e+00  0.00000000000000000000e+00 0
5.33333333333333325932e-01  0.00000000000000000000e+00  0.00000000000000000000e+00  0.00000000000000000000e+00 0
5.41666666666666629659e-01  0.00000000000000000000e+00  0.00000000000000000000e+00  0.00000000000000000000e+00 0
5.50000000000000044409e-01  0.00000000000000000000e+00  0.00000000000000000000e+00  0.00000000000000000000e+00 0
5.58333333333333348136e-01  0.00000000000000000000e+00  0.00000000000000000000e+00  0.00000000000000000000e+00 0
5.66666666666666651864e-01  0.00000000000000000000e+00  0.00000000000000000000e+00  0.00000000000000000000e+00 0
5.74999999999999955591e-01  0.00000000000000000000e+00  0.00000000000000000000e+00  0.00000000000000000000e+00 0
5.83333333333333370341e-01  0.00000000000000000000e+00  0.00000000000000000000e+00  0.00000000000000000000e+00 0
5.91666666666666674068e-01  0.00000000000000000000e+00  0.00000000000000000000e+00  0.00000000000000000000e+00 0
5.99999999999999977796e-01  0.00000000000000000000e+00  0.00000000000000000000e+00  0.00000000000000000000e+00 0
6.08333333333333281523e-01  0.00000000000000000000e+00  0.00000000000000000000e+00  0.00000000000000000000e+00 0
6.16666666666666696273e-01  0.00000000000000000000e+00  0.00000000000000000000e+00  0.00000000000000000000e+00 0
6.25000000000000000000e-01  0.00000000000000000000e+00  0.00000000000000000000e+00  0.00000000000000000000e+00 0
6.33333333333333303727e-01  0.00000000000000000000e+00  0.00000000000000000000e+00  0.00000000000000000000e+00 0
6.41666666666666718477e-01  0.00000000000000000000e+00  0.00000000000000000000e+00  0.00000000000000000000e+00 0
6.50000000000000022204e-01  0.00000000000000000000e+00  0.00000000000000000000e+00  0.00000000000000000000e+00 0
6.58333333333333325932e-01  0.00000000000000000000e+00  0.00000000000000000000e+00  0.00000000000000000000e+00 0
6.66666666666666629659e-01  0.00000000000000000000e+00  0.00000000000000000000e+00  0.00000000000000000000e+00 0
6.75000000000000044409e-01  0.00000000000000000000e+00  0.00000000000000000000e+00  0.00000000000000000000e+00 0
6.83333333333333348136e-01  0.00000000000000000000e+00  0.00000000000000000000e+00  0.00000000000000000000e+00 0
6.91666666666666651864e-01  0.00000000000000000000e+00  0.00000000000000000000e+00  0.00000000000000000000e+00 0
6.99999999999999955591e-01  0.00000000000000000000e+00  0.00000000000000000000e+00  0.00000000000000000000e+00 0
7.08333333333333370341e-01  0.00000000000000000000e+00  0.00000000000000000000e+00  0.00000000000000000000e+00 0
7.16666666666666674068e-01  0.00000000000000000000e+00  0.00000000000000000000e+00  0.00000000000000000000e+00 0
7.24999999999999977796e-01  0.00000000000000000000e+00  0.00000000000000000000e+00  0.00000000000000000000e+00 0
7.33333333333333281523e-01  0.00000000000000000000e+00  0.00000000000000000000e+00  0.00000000000000000000e+00 0
7.41666666666666696273e-01  0.00000000000000000000e+00  0.00000000000000000000e+00  0.00000000000000000000e+00 0
7.50000000000000000000e-01  0.00000000000000000000e+00  0.00000000000000000000e+00  0.00000000000000000000e+00 0
7.58333333333333303727e-01  0.00000000000000000000e+00  0.00000000000000000000e+00  0.00000000000000000000e+00 0
7.66666666666666718477e-01  0.00000000000000000000e+00  0.00000000000000000000e+00  0.00000000000000000000e+00 0
7.75000000000000022204e-01  0.00000000000000000000e+00  0.00000000000000000000e+00  0.00000000000000000000e+00 0
7.83333333333333325932e-01  0.00000000000000000000e+00  0.00000000000000000000e+00  0.00000000000000000000e+00 0
7.91666666666666629659e-01  0.00000000000000000000e+00  0.00000000000000000000e+00  0.00000000000000000000e+00 0
8.00000000000000044409e-01  0.00000000000000000000e+00  0.00000000000000000000e+00  0.00000000000000000000e+00 0
8.08333333333333348136e-01  0.00000000000000000000e+00  0.00000000000000000000e+00  0.00000000000000000000e+00 0
8.16666666666666651864e-01  0.00000000000000000000e+00  0.00000000000000000000e+00  0.00000000000000000000e+00 0
8.24999999999999955591e-01  0.00000000000000000000e+00  0.00000000000000000000e+00  0.00000000000000000000e+00 0
8.33333333333333370341e-01  0.00000000000000000000e+00  0.00000000000000000000e+00  0.00000000000000000000e+00 0
8.41666666666666674068e-01  0.00000000000000000000e+00  0.00000000000000000000e+00  0.00000000000000000000e+00 0
8.49999999999999977796e-01  0.00000000000000000000e+00  0.00000000000000000000e+00  0.00000000000000000000e+00 0
8.58333333333333281523e-01  0.00000000000000000000e+00  0.00000000000000000000e+00  0.00000000000000000000e+00 0
8.66666666666666696273e-01  0.00000000000000000000e+00  0.00000000000000000000e+00  0.00000000000000000000e+00 0
8.75000000000000000000e-01  0.00000000000000000000e+00  0.00000000000000000000e+00  0.00000000000000000000e+00 0
8.83333333333333303727e-01  0.00000000000000000000e+00  0.00000000000000000000e+00  0.00000000000000000000e+00 0
8.91666666666666718477e-01  0.00000000000000000000e+00  0.00000000000000000000e+00  0.00000000000000000000e+00 0
9.00000000000000022204e-01  0.00000000000000000000e+00  0.00000000000000000000e+00  0.00000000000000000000e+00 0
9.08333333333333325932e-01  0.00000000000000000000e+00  0.00000000000000000000e+00  0.00000000000000000000e+00 0
9.16666666666666629659e-01  0.00000000000000000000e+00  0.00000000000000000000e+00  0.00000000000000000000e+00 0
9.25000000000000044409e-01  0.00000000000000000000e+00  0.00000000000000000000e+00  0.00000000000000000000e+00 0
9.33333333333333348136e-01  0.00000000000000000000e+00  0.00000000000000000000e+00  0.00000000000000000000e+00 0
9.41666666666666651864e-01  0.00000000000000000000e+00  0.00000000000000000000e+00  0.00000000000000000000e+00 0
9.49999999999999955591e-01  0.00000000000000000000e+00  0.00000000000000000000e+00  0.00000000000000000000e+00 0
9.58333333333333370341e-01  0.00000000000000000000e+00  0.00000000000000000000e+00  0.00000000000000000000e+00 0
9.66666666666666674068e-01  0.00000000000000000000e+00  0.00000000000000000000e+00  0.00000000000000000000e+00 0
9.74999999999999977796e-01  0.00000000000000000000e+00  0.00000000000000000000e+00  0.00000000000000000000e+00 0
9.83333333333333281523e-01  0.00000000000000000000e+00  0.00000000000000000000e+00  0.00000000000000000000e+00 0
9.91666666666666696273e-01  0.00000000000000000000e+00  0.00000000000000000000e+00  0.00000000000000000000e+00 0
1.00000000000000000000e+00  0.00000000000000000000e+00  0.00000000000000000000e+00  0.00000000000000000000e+00 0
0.00000000000000000000e+00  8.33333333333333321769e-03  0.00000000000000000000e+00  0.00000000000000000000e+00 0
8.33333333333333321769e-03  8.33333333333333321769e-03  6.86395576230021072818e-04  1.16295351695818068027e-06 0
1.66666666666666664354e-02  8.33333333333333321769e-03  1.40848976293464359447e-03  3.84941417199918898412e-05 0
2.50000000000000013878e-02  8.33333333333333321769e-03  2.09218242286048419776e-03  3.83627297102159814379e-05 0
3.33333333333333328707e-02  8.33333333333333321769e-03  2.77444120546054516507e-03  3.82050258017634265795e-05 0
4.16666666666666643537e-02  8.33333333333333321769e-03  3.45479852464480700902e-03  3.80211380770025843268e-05 0
5.00000000000000027756e-02  8.33333333333333321769e-03  4.13278809749132412799e-03  3.78111925634109710681e-05 0
5.83333333333333342585e-02  8.33333333333333321769e-03  4.80794526381317973568e-03  3.75753331471355075943e-05 0
6.66666666666666657415e-02  8.33333333333333321769e-03  5.47980730461343837345e-03  3.73137214744485162798e-05 0
7.49999999999999972244e-02  8.33333333333333321769e-03  6.14791375920962623186e-03  3.70265368409518000337e-05 0
8.33333333333333287074e-02  8.33333333333333321769e-03  6.81180674081037322576e-03  3.67139760685990593214e-05 0
9.16666666666666601904e-02  8.33333333333333321769e-03  7.47103125032831921065e-03  3.63762533709633892332e-05 0
1.00000000000000005551e-01  8.33333333333333321769e-03  8.12513548821359662955e-03  3.60136002062715065986e-05 0
1.08333333333333337034e-01  8.33333333333333321769e-03  8.77367116409487682316e-03  3.56262651189653833939e-05 0
1.16666666666666668517e-01  8.33333333333333321769e-03  9.41619380401490131682e-03  3.52145135690835192621e-05 0
1.25000000000000000000e-01  8.33333333333333321769e-03  1.00522630550510441022e-02  3.47786277506180463437e-05 0
1.33333333333333331483e-01  8.33333333333333321769e-03  1.06814429871109946996e-02  3.43189063979221914424e-05 0
1.41666666666666662966e-01  8.33333333333333321769e-03  1.13033023916975158829e-02  3.38356645810024975196e-05 0
1.49999999999999994449e-01  8.33333333333333321769e-03  1.19174150774374563999e-02  3.33292334898423886491e-05 0
1.58333333333333325932e-01  8.33333333333333321769e-03  1.25233601621713291907e-02  3.27999602067231832425e-05 0
1.66666666666666657415e-01  8.33333333333333321769e-03  1.31207223614058995920e-02  3.22482074693267867227e-05 0
1.74999999999999988898e-01  8.33333333333333321769e-03  1.37090922729287412185e-02  3.16743534214368460677e-05 0
1.83333333333333320381e-01  8.33333333333333321769e-03  1.42880666573920820511e-02  3.10787913538074916930e-05 0
1.91666666666666679619e-01  8.33333333333333321769e-03  1.48572487146733725472e-02  3.04619294350712971342e-05 0
2.00000000000000011102e-01  8.33333333333333321769e-03  1.54162483558216642510e-02  2.98241904314183736702e-05 0
2.08333333333333342585e-01  8.33333333333333321769e-03  1.59646824704056354560e-02  2.91660114173641904500e-05 0
2.16666666666666674068e-01  8.33333333333333321769e-03  1.65021751890782678029e-02  2.84878434761541565745e-05 0
2.25000000000000005551e-01  8.33333333333333321769e-03  1.70283581411781390069e-02  2.77901513898171081962e-05 0
2.33333333333333337034e-01  8.33333333333333321769e-03  1.75428707071936598738e-02  2.70734133220110195772e-05 0
2.41666666666666668517e-01  8.33333333333333321769e-03  1.80453602659123024665e-02  2.63381204889528985902e-05 0
2.50000000000000000000e-01  8.33333333333333321769e-03  1.85354824360906625391e-02  2.55847768238399997376e-05 0
2.58333333333333359239e-01  8.33333333333333321769e-03  1.90129013124751937436e-02  2.48138986305400377486e-05 0
2.66666666666666662966e-01  8.33333333333333321769e-03  1.94772896960159411228e-02  2.40260142307831270347e-05 0
2.75000000000000022204e-01  8.33333333333333321769e-03  1.99283293181111709202e-02  2.32216636007892551774e-05 0
2.83333333333333325932e-01  8.33333333333333321769e-03  2.03657110587342274344e-02  2.24013980027228110092e-05 0
2.91666666666666685170e-01  8.33333333333333321769e-03  2.07891351582872759007e-02  2.15657796051177408359e-05 0
2.99999999999999988898e-01  8.33333333333333321769e-03  2.11983114230436947567e-02  2.07153810997916243419e-05 0
3.08333333333333348136e-01  8.33333333333333321769e-03  2.15929594240300212760e-02  1.98507853069983253302e-05 0
3.16666666666666651864e-01  8.33333333333333321769e-03  2.19728086892189769519e-02  1.89725847770001732062e-05 0
3.25000000000000011102e-01  8.33333333333333321769e-03  2.23375988888992980941e-02  1.80813813857594318790e-05 0
3.33333333333333314830e-01  8.33333333333333321769e-03  2.26870800140886834384e-02  1.71777859184624182021e-05 0
3.41666666666666674068e-01  8.33333333333333321769e-03  2.30210125478815218203e-02  1.62624176549205912146e-05 0
3.49999999999999977796e-01  8.33333333333333321769e-03  2.33391676295991272461e-02  1.53359039424955101438e-05 0
3.58333333333333337034e-01  8.33333333333333321769e-03  2.36413272116412151447e-02  1.43988797679274471708e-05 0
3.66666666666666640761e-01  8.33333333333333321769e-03  2.39272842089227402718e-02  1.34519873200567019467e-05 0
3.75000000000000000000e-01  8.33333333333333321769e-03  2.41968426408020291507e-02  1.24958755520661324301e-05 0
3.83333333333333359239e-01  8.33333333333333321769e-03  2.44498177653948572940e-02  1.15311997354386464032e-05 0
3.91666666666666662966e-01  8.33333333333333321769e-03  2.46860362061864999084e-02  1.05586210100774846588e-05 0
4.00000000000000022204e-01  8.33333333333333321769e-03  2.49053360708577017912e-02  9.57880593355220355534e-06 0
4.08333333333333325932e-01  8.33333333333333321769e-03  2.51075670622350373418e-02  8.59242602170920410920e-06 0
4.16666666666666685170e-01  8.33333333333333321769e-03  2.52925905812993005728e-02  7.60015729070126488942e-06 0
4.24999999999999988898e-01  8.33333333333333321769e-03  2.54602798221715137528e-02  6.60267979080489397781e-06 0
4.33333333333333348136e-01  8.33333333333333321769e-03  2.56105198590236282641e-02  5.60067714465428689863e-06 0
4.41666666666666651864e-01  8.33333333333333321769e-03  2.57432077248382837342e-02  4.59483607405386518252e-06 0
4.50000000000000011102e-01  8.33333333333333321769e-03  2.58582524819799923488e-02  3.58584593206090485040e-06 0
4.58333333333333314830e-01  8.33333333333333321769e-03  2.59555752845191632650e-02  2.57439823046767823911e-06 0
4.66666666666666674068e-01  8.33333333333333321769e-03  2.60351094322684821492e-02  1.56118616516376373937e-06 0
4.74999999999999977796e-01  8.33333333333333321769e-03  2.60968004164953276680e-02  5.46904140513032599458e-07 0
4.83333333333333337034e-01  8.33333333333333321769e-03  2.61406059572811648450e-02  4.67752704725460377588e-07 0
4.91666666666666640761e-01  8.33333333333333321769e-03  2.61664960324960726989e-02  1.48208897584115040225e-06 0
5.00000000000000000000e-01  8.33333333333333321769e-03  2.61744528983763741214e-02  2.49540949677495849102e-06 0
5.08333333333333303727e-01  8.33333333333333321769e-03  2.61644711016829310812e-02  3.50701978898276811591e-06 0
5.16666666666666718477e-01  8.33333333333333321769e-03  2.61365574834405874072e-02  4.51622654530289824315e-06 0
5.25000000000000022204e-01  8.33333333333333321769e-03  2.60907311742498183860e-02  5.52233810499624944157e-06 0
5.33333333333333325932e-01  8.33333333333333321769e-03  2.60270235811731164011e-02  6.52466493020545379444e-06 0
5.41666666666666629659e-01  8.33333333333333321769e-03  2.59454783662127139165e-02  7.52252007598513960929e-06 0
5.50000000000000044409e-01  8.33333333333333321769e-03  2.58461514163853822712e-02  8.51521966254570328303e-06 0
5.58333333333333348136e-01  8.33333333333333321769e-03  2.57291108054218224666e-02  9.50208334240740248866e-06 0
5.66666666666666651864e-01  8.33333333333333321769e-03  2.55944367471095286792e-02  1.04824347694452979507e-05 0
5.74999999999999955591e-01  8.33333333333333321769e-03  2.54422215403217917562e-02  1.14556020589205720395e-05 0
5.83333333333333370341e-01  8.33333333333333321769e-03  2.52725695057578088332e-02  1.24209182507904747350e-05 0
5.91666666666666674068e-01  8.33333333333333321769e-03  2.50855969144465826282e-02  1.33777217667455095018e-05 0
5.99999999999999977796e-01  8.33333333333333321769e-03  2.48814319080647369797e-02  1.43253568594160773930e-05 0
6.08333333333333281523e-01  8.33333333333333321769e-03  2.46602144111081576783e-02  1.52631740682647454310e-05 0
6.16666666666666696273e-01  8.33333333333333321769e-03  2.44220960349991501881e-02  1.61905306602684595507e-05 0
6.25000000000000000000e-01  8.33333333333333321769e-03  2.41672399741793483829e-02  1.71067910706146353306e-05 0
6.33333333333333303727e-01  8.33333333333333321769e-03  2.38958208942606428749e-02  1.80113273420406949654e-05 0
6.41666666666666718477e-01  8.33333333333333321769e-03  2.36080248123246155822e-02  1.89035195486721152580e-05 0
6.50000000000000022204e-01  8.33333333333333321769e-03  2.33040489694295374634e-02  1.97827562270942725053e-05 0
6.58333333333333325932e-01  8.33333333333333321769e-03  2.29841016954337278022e-02  2.06484347928734268685e-05 0
6.66666666666666629659e-01  8.33333333333333321769e-03  2.26484022662169250106e-02  2.14999619532994790116e-05 0
6.75000000000000044409e-01  8.33333333333333321769e-03  2.22971807534008033269e-02  2.23367541127353352870e-05 0
6.83333333333333348136e-01  8.33333333333333321769e-03  2.19306778666645725562e-02  2.31582377774042225127e-05 0
6.91666666666666651864e-01  8.33333333333333321769e-03  2.15491447887804395134e-02  2.39638499425834372580e-05 0
6.99999999999999955591e-01  8.33333333333333321769e-03  2.11528430034624778666e-02  2.47530384814252657488e-05 0
7.08333333333333370341e-01  8.33333333333333321769e-03  2.07420441161570399957e-02  2.55252625251181641808e-05 0
7.16666666666666674068e-01  8.33333333333333321769e-03  2.03170296679031671394e-02  2.62799928283409534036e-05 0
7.24999999999999977796e-01  8.33333333333333321769e-03  1.98780909423734337971e-02  2.70167121369478679949e-05 0
7.33333333333333281523e-01  8.33333333333333321769e-03  1.94255287662442530094e-02  2.77349155409153946827e-05 0
7.41666666666666696273e-01  8.33333333333333321769e-03  1.89596533030255177954e-02  2.84341108191324409837e-05 0
7.50000000000000000000e-01  8.33333333333333321769e-03  1.84807838404888145900e-02  2.91138187780114188197e-05 0
7.58333333333333303727e-01  8.33333333333333321769e-03  1.79892485718433983721e-02  2.97735735799616041408e-05 0
7.66666666666666718477e-01  8.33333333333333321769e-03  1.74853843708102432708e-02  3.04129230613986445420e-05 0
7.75000000000000022204e-01  8.33333333333333321769e-03  1.69695365607434242583e-02  3.10314290448976404235e-05 0
7.83333333333333325932e-01  8.33333333333333321769e-03  1.64420586779648186804e-02  3.16286676372914965505e-05 0
7.91666666666666629659e-01  8.33333333333333321769e-03  1.59033122294683429421e-02  3.22042295199317929466e-05 0
8.00000000000000044409e-01  8.33333333333333321769e-03  1.53536664451574024481e-02  3.27577202328468986003e-05 0
8.08333333333333348136e-01  8.33333333333333321769e-03  1.47934980247976383128e-02  3.32887604406629372678e-05 0
8.16666666666666651864e-01  8.33333333333333321769e-03  1.42231908798438368147e-02  3.37969861944464183834e-05 0
8.24999999999999955591e-01  8.33333333333333321769e-03  1.36431358703246810582e-02  3.42820491826267836899e-05 0
8.33333333333333370341e-01  8.33333333333333321769e-03  1.30537305369701952390e-02  3.47436169663775662464e-05 0
8.41666666666666674068e-01  8.33333333333333321769e-03  1.24553788287541031266e-02  3.51813732105080850809e-05 0
8.49999999999999977796e-01  8.33333333333333321769e-03  1.18484908260486562770e-02  3.55950178989594689938e-05 0
8.58333333333333281523e-01  8.33333333333333321769e-03  1.12334824595762203248e-02  3.59842675403052036920e-05 0
8.66666666666666696273e-01  8.33333333333333321769e-03  1.06107752253514417418e-02  3.63488553616272969116e-05 0
8.75000000000000000000e-01  8.33333333333333321769e-03  9.98079589580688243677e-03  3.66885314935453538121e-05 0
8.83333333333333303727e-01  8.33333333333333321769e-03  9.34397622730722896001e-03  3.70030631385992458959e-05 0
8.91666666666666718477e-01  8.33333333333333321769e-03  8.70075266424369039853e-03  3.72922347322141023440e-05 0
9.00000000000000022204e-01  8.33333333333333321769e-03  8.05156603991596421521e-03  3.75558480913643771837e-05 0
9.08333333333333325932e-01  8.33333333333333321769e-03  7.39686127440957082169e-03  3.77937225477849997324e-05 0
9.16666666666666629659e-01  8.33333333333333321769e-03  6.73708706966692338208e-03  3.80056950748585906097e-05 0
9.25000000000000044409e-01  8.33333333333333321769e-03  6.07269560197176185012e-03  3.81916203969160511500e-05 0
9.33333333333333348136e-01  8.33333333333333321769e-03  5.40414221204890774658e-03  3.83513710900821105931e-05 0
9.41666666666666651864e-01  8.33333333333333321769e-03  4.73188509299695293092e-03  3.84848376690973686953e-05 0
9.49999999999999955591e-01  8.33333333333333321769e-03  4.05638497626509449134e-03  3.85919286628212676593e-05 0
9.58333333333333370341e-01  8.33333333333333321769e-03  3.37810481589149525297e-03  3.86725706763091717222e-05 0
9.66666666666666674068e-01  8.33333333333333321769e-03  2.69750947121712505994e-03  3.87267084416640511302e-05 0
9.74999999999999977796e-01  8.33333333333333321769e-03  2.01506538829485017800e-03  3.87543048554210740886e-05 0
9.83333333333333281523e-01  8.33333333333333321769e-03  1.33124028021019491855e-03  3.87553410044678449398e-05 0
9.91666666666666696273e-01  8.33333333333333321769e-03  6.83939024785287807452e-04  1.29359792777063945662e-06 0
1.00000000000000000000e+00  8.33333333333333321769e-03  0.00000000000000000000e+00  3.20575159566825743237e-18 0
0.00000000000000000000e+00  1.66666666666666664354e-02  0.00000000000000000000e+00  0.00000000000000000000e+00 0
8.33333333333333321769e-03  1.66666666666666664354e-02  1.40848976293464381131e-03  3.84941417199921066816e-05 0
1.66666666666666664354e-02  1.66666666666666664354e-02  2.81473551399471144316e-03  7.56831981313802262812e-05 0
2.50000000000000013878e-02  1.66666666666666664354e-02  4.18165445745028330898e-03  7.54226565768496490239e-05 0
3.33333333333333328707e-02  1.66666666666666664354e-02  5.54570750381901383247e-03  7.51104241009416251362e-05 0
4.16666666666666643537e-02  1.66666666666666664354e-02  6.90595979927889364741e-03  7.47467146921991856812e-05 0
5.00000000000000027756e-02  1.66666666666666664354e-02  8.26147909485275278030e-03  7.43317776189036938383e-05 0
5.83333333333333342585e-02  1.66666666666666664354e-02  9.61133638532507203478e-03  7.38658972581681533276e-05 0
6.66666666666666657415e-02  1.66666666666666664354e-02  1.09546065459358837185e-02  7.33493929011667933349e-05 0
7.49999999999999972244e-02  1.66666666666666664354e-02  1.22903689664148642324e-02  7.27826185340993414563e-05 0
8.33333333333333287074e-02  1.66666666666666664354e-02  1.36177081819219523984e-02  7.21659625959221451286e-05 0
9.16666666666666601904e-02  1.66666666666666664354e-02  1.49357145004607744926e-02  7.14998477116743358373e-05 0
1.00000000000000005551e-01  1.66666666666666664354e-02  1.62434846263367002606e-02  7.07847304034329993794e-05 0
1.08333333333333337034e-01  1.66666666666666664354e-02  1.75401222792297417641e-02  7.00211007765953741266e-05 0
1.16666666666666668517e-01  1.66666666666666664354e-02  1.88247388084613505310e-02  6.92094821850147701170e-05 0
1.25000000000000000000e-01  1.66666666666666664354e-02  2.00964538020302965760e-02  6.83504308714028008254e-05 0
1.33333333333333331483e-01  1.66666666666666664354e-02  2.13543956900035837576e-02  6.74445355866443163606e-05 0
1.41666666666666662966e-01  1.66666666666666664354e-02  2.25977023418469508131e-02  6.64924171862660284837e-05 0
1.49999999999999994449e-01  1.66666666666666664354e-02  2.38255216572852424051e-02  6.54947282041212774928e-05 0
1.58333333333333325932e-01  1.66666666666666664354e-02  2.50370121502913912936e-02  6.44521524072010076889e-05 0
1.66666666666666657415e-01  1.66666666666666664354e-02  2.62313435257963377401e-02  6.33654043244273601498e-05 0
1.74999999999999988898e-01  1.66666666666666664354e-02  2.74076972487333724027e-02  6.22352287585233032718e-05 0