Titile = 'Poisson'  
VARIABLES = X, Y, U, Error, Rank 
zone N= 1936, E = 3600
DATAPACKING=POINT, ZONETYPE=FETRIANGLE
0.00000000000000000000e+00  2.50000000000000000000e-01  0.00000000000000000000e+00  0.00000000000000000000e+00 2
8.33333333333333321769e-03  2.50000000000000000000e-01  1.85354824360906660086e-02  2.55847768238434691845e-05 2
1.66666666666666664354e-02  2.50000000000000000000e-01  3.70573561577323060123e-02  5.02465984643027385737e-05 2
2.50000000000000013878e-02  2.50000000000000000000e-01  5.55273521405346276447e-02  4.83935056109913164235e-05 2
3.33333333333333328707e-02  2.50000000000000000000e-01  7.39592924498321674376e-02  4.65072462654675389260e-05 2
4.16666666666666643537e-02  2.50000000000000000000e-01  9.23405447544340673982e-02  4.45891131768266779645e-05 2
5.00000000000000027756e-02  2.50000000000000000000e-01  1.10658511462174133366e-01  4.26404209369901643356e-05 2
5.83333333333333342585e-02  2.50000000000000000000e-01  1.28900638353675323078e-01  4.06625050839160007143e-05 2
6.66666666666666657415e-02  2.50000000000000000000e-01  1.47054423186378319111e-01  3.86567211798638510345e-05 2
7.49999999999999972244e-02  2.50000000000000000000e-01  1.65107424262961460792e-01  3.66244438897989077475e-05 2
8.33333333333333287074e-02  2.50000000000000000000e-01  1.83047268958255016091e-01  3.45670660357177972344e-05 2
9.16666666666666601904e-02  2.50000000000000000000e-01  2.00861662198819374003e-01  3.24859976409408446330e-05 2
1.00000000000000005551e-01  2.50000000000000000000e-01  2.18538394889379233854e-01  3.03826649687422012391e-05 2
1.08333333333333337034e-01  2.50000000000000000000e-01  2.36065352280313084377e-01  2.82585095303655720045e-05 2
1.16666666666666668517e-01  2.50000000000000000000e-01  2.53430522270522096129e-01  2.61149871217947193713e-05 2
1.25000000000000000000e-01  2.50000000000000000000e-01  2.70622003639914066042e-01  2.39535668156154457620e-05 2
1.33333333333333331483e-01  2.50000000000000000000e-01  2.87628014205863979935e-01  2.17757299132981252399e-05 2
1.41666666666666662966e-01  2.50000000000000000000e-01  3.04436898898243490930e-01  1.95829690398108269278e-05 2
1.49999999999999994449e-01  2.50000000000000000000e-01  3.21037137747041734226e-01  1.73767869386942663823e-05 2
1.58333333333333325932e-01  2.50000000000000000000e-01  3.37417353777831385830e-01  1.51586956961824448342e-05 2
1.66666666666666657415e-01  2.50000000000000000000e-01  3.53566320808677669874e-01  1.29302154039945271791e-05 2
1.74999999999999988898e-01  2.50000000000000000000e-01  3.69472971144314876746e-01  1.06928734293632032859e-05 2
1.83333333333333320381e-01  2.50000000000000000000e-01  3.85126403161073271875e-01  8.44820305023752382567e-06 2
1.91666666666666679619e-01  2.50000000000000000000e-01  4.00515888778640360979e-01  6.19774273685758103625e-06 2
2.00000000000000011102e-01  2.50000000000000000000e-01  4.15630880812218772569e-01  3.94303476536350672177e-06 2
2.08333333333333342585e-01  2.50000000000000000000e-01  4.30461020201337807300e-01  1.68562445840292340904e-06 2
2.16666666666666674068e-01  2.50000000000000000000e-01  4.44996143109193942333e-01  5.72941115994929361932e-07 2
2.25000000000000005551e-01  2.50000000000000000000e-01  4.59226287888637729750e-01  2.83111400373181609780e-06 2
2.33333333333333337034e-01  2.50000000000000000000e-01  4.73141701909213174826e-01  5.08734660181753284292e-06 2
2.41666666666666668517e-01  2.50000000000000000000e-01  4.86732848241265669831e-01  7.34009257630230393943e-06 2
2.50000000000000000000e-01  2.50000000000000000000e-01  4.99990412191975319711e-01  9.58780802456926650734e-06 2
2.58333333333333359239e-01  2.50000000000000000000e-01  5.12905307689283662675e-01  1.18289524314585392517e-05 2
2.66666666666666662966e-01  2.50000000000000000000e-01  5.25468683508808820370e-01  1.40619899499094813677e-05 2
2.75000000000000022204e-01  2.50000000000000000000e-01  5.37671929340488352622e-01  1.62853899980941463355e-05 2
2.83333333333333325932e-01  2.50000000000000000000e-01  5.49506681689073905872e-01  1.84976288893912155231e-05 2
2.91666666666666685170e-01  2.50000000000000000000e-01  5.60964829606514281402e-01  2.06971904166408648962e-05 2
2.99999999999999988898e-01  2.50000000000000000000e-01  5.72038520250526261179e-01  2.28825671579890865814e-05 2
3.08333333333333348136e-01  2.50000000000000000000e-01  5.82720164266750995097e-01  2.50522613000070393241e-05 2
3.16666666666666651864e-01  2.50000000000000000000e-01  5.93002440989900403423e-01  2.72047858819179921852e-05 2
3.25000000000000011102e-01  2.50000000000000000000e-01  6.02878303461156339615e-01  2.93386656345928642509e-05 2
3.33333333333333314830e-01  2.50000000000000000000e-01  6.12340983257586235489e-01  3.14524382082348452627e-05 2
3.41666666666666674068e-01  2.50000000000000000000e-01  6.21383995131292721226e-01  3.35446547650164461629e-05 2
3.49999999999999977796e-01  2.50000000000000000000e-01  6.30001141453521373847e-01  3.56138815290618637732e-05 2
3.58333333333333337034e-01  2.50000000000000000000e-01  6.38186516462687647433e-01  3.76587002869355202961e-05 2
3.66666666666666640761e-01  2.50000000000000000000e-01  6.45934510311515608372e-01  3.96777097353417929071e-05 2
3.75000000000000000000e-01  2.50000000000000000000e-01  6.53239812912216444296e-01  4.16695259717325683368e-05 2
3.83333333333333359239e-01  2.50000000000000000000e-01  6.60097417575141509616e-01  4.36327840589445514752e-05 2
3.91666666666666662966e-01  2.50000000000000000000e-01  6.66502624440694524388e-01  4.55661383833572131152e-05 2
4.00000000000000022204e-01  2.50000000000000000000e-01  6.72451043700027062400e-01  4.74682639302059783404e-05 2
4.08333333333333325932e-01  2.50000000000000000000e-01  6.77938598603600062198e-01  4.93378571867486570568e-05 2
4.16666666666666685170e-01  2.50000000000000000000e-01  6.82961528255576100221e-01  5.11736366431980727043e-05 2
4.24999999999999988898e-01  2.50000000000000000000e-01  6.87516390190733073240e-01  5.29743442874153203093e-05 2
4.33333333333333348136e-01  2.50000000000000000000e-01  6.91600062734283871357e-01  5.47387459416404098533e-05 2
4.41666666666666651864e-01  2.50000000000000000000e-01  6.95209747140961842327e-01  5.64656324623102889859e-05 2
4.50000000000000011102e-01  2.50000000000000000000e-01  6.98342969513511713231e-01  5.81538201985809521943e-05 2
4.58333333333333314830e-01  2.50000000000000000000e-01  7.00997582497763449538e-01  5.98021522143499240087e-05 2
4.66666666666666674068e-01  2.50000000000000000000e-01  7.03171766754582039383e-01  6.14094988220514892419e-05 2
4.74999999999999977796e-01  2.50000000000000000000e-01  7.04864032206658608359e-01  6.29747584486306521967e-05 2
4.83333333333333337034e-01  2.50000000000000000000e-01  7.06073219059805690101e-01  6.44968583204397205577e-05 2
4.91666666666666640761e-01  2.50000000000000000000e-01  7.06798498597820734624e-01  6.59747551999823045321e-05 2
5.00000000000000000000e-01  2.50000000000000000000e-01  7.07039373750129707119e-01  6.74074364177545959365e-05 2
5.08333333333333303727e-01  2.50000000000000000000e-01  7.06795679433240620071e-01  6.87939197800968571528e-05 2
5.16666666666666718477e-01  2.50000000000000000000e-01  7.06067582662758153056e-01  7.01332553679767656263e-05 2
5.25000000000000022204e-01  2.50000000000000000000e-01  7.04855582440143901835e-01  7.14245249633371770415e-05 2
5.33333333333333325932e-01  2.50000000000000000000e-01  7.03160509409474721032e-01  7.26668439294808621298e-05 2
5.41666666666666629659e-01  2.50000000000000000000e-01  7.00983525289319397977e-01  7.38593606585125073138e-05 2
5.50000000000000044409e-01  2.50000000000000000000e-01  6.98326122076068145361e-01  7.50012576420377996556e-05 2
5.58333333333333348136e-01  2.50000000000000000000e-01  6.95190121020639262284e-01  7.60917527848903318954e-05 2
5.66666666666666651864e-01  2.50000000000000000000e-01  6.91577671381895298097e-01  7.71300983302136700104e-05 2
5.74999999999999955591e-01  2.50000000000000000000e-01  6.87491248952290523455e-01  7.81155827299651051021e-05 2
5.83333333333333370341e-01  2.50000000000000000000e-01  6.82933654361447928238e-01  7.90475307713700559020e-05 2
5.91666666666666674068e-01  2.50000000000000000000e-01  6.77908011157515533185e-01  7.99253032712776700919e-05 2
5.99999999999999977796e-01  2.50000000000000000000e-01  6.72417763664707845983e-01  8.07482992494223950075e-05 2
6.08333333333333281523e-01  2.50000000000000000000e-01  6.66466674624808463889e-01  8.15159542694177119415e-05 2
6.16666666666666696273e-01  2.50000000000000000000e-01  6.60058822616900631175e-01  8.22277422998229923223e-05 2
6.25000000000000000000e-01  2.50000000000000000000e-01  6.53198599262495016582e-01  8.28831756931602825489e-05 2
6.33333333333333303727e-01  2.50000000000000000000e-01  6.45890706216447063603e-01  8.34818048039975835195e-05 2
6.41666666666666718477e-01  2.50000000000000000000e-01  6.38140151943047073679e-01  8.40232199275092739299e-05 2
6.50000000000000022204e-01  2.50000000000000000000e-01  6.29952248285418625606e-01  8.45070496318101049837e-05 2
6.58333333333333325932e-01  2.50000000000000000000e-01  6.21332606823656208306e-01  8.49329624015293660477e-05 2
6.66666666666666629659e-01  2.50000000000000000000e-01  6.12287135029373597028e-01  8.53006664208733056398e-05 2
6.75000000000000044409e-01  2.50000000000000000000e-01  6.02822032217222303352e-01  8.56099095687401501209e-05 2
6.83333333333333348136e-01  2.50000000000000000000e-01  5.92943785295804604019e-01  8.58604799777173965936e-05 2
6.91666666666666651864e-01  2.50000000000000000000e-01  5.82659164322088085619e-01  8.60522059630275393260e-05 2
6.99999999999999955591e-01  2.50000000000000000000e-01  5.71975217861718676637e-01  8.61849559655736285890e-05 2
7.08333333333333370341e-01  2.50000000000000000000e-01  5.60899268157751595965e-01  8.62586391793263018712e-05 2
7.16666666666666674068e-01  2.50000000000000000000e-01  5.49438906112983960206e-01  8.62732049794479038951e-05 2
7.24999999999999977796e-01  2.50000000000000000000e-01  5.37601986087053340668e-01  8.62286434331061002467e-05 2
7.33333333333333281523e-01  2.50000000000000000000e-01  5.25396620513590706381e-01  8.61249851682455158652e-05 2
7.41666666666666696273e-01  2.50000000000000000000e-01  5.12831174340677931056e-01  8.59623010371901585813e-05 2
7.50000000000000000000e-01  2.50000000000000000000e-01  4.99914259297342011834e-01  8.57407026579881659245e-05 2
7.58333333333333303727e-01  2.50000000000000000000e-01  4.86654727991891633554e-01  8.54603419505606254347e-05 2
7.66666666666666718477e-01  2.50000000000000000000e-01  4.73061667844903221969e-01  8.51214109116038564196e-05 2
7.75000000000000022204e-01  2.50000000000000000000e-01  4.59144394860640070455e-01  8.47241420015021340362e-05 2
7.83333333333333325932e-01  2.50000000000000000000e-01  4.44912447243004050002e-01  8.42688073057762387919e-05 2
7.91666666666666629659e-01  2.50000000000000000000e-01  4.30375578857882246098e-01  8.37557189972693016955e-05 2
8.00000000000000044409e-01  2.50000000000000000000e-01  4.15543752548697076232e-01  8.31852287563883407984e-05 2
8.08333333333333348136e-01  2.50000000000000000000e-01  4.00427133308455251992e-01  8.25577274482514056331e-05 2
8.16666666666666651864e-01  2.50000000000000000000e-01  3.85036081312749745020e-01  8.18736452735113751089e-05 2
8.24999999999999955591e-01  2.50000000000000000000e-01  3.69381144819970697046e-01  8.11334509148720073313e-05 2
8.33333333333333370341e-01  2.50000000000000000000e-01  3.53473052941513765646e-01  8.03376517599097006439e-05 2
8.41666666666666674068e-01  2.50000000000000000000e-01  3.37322708288922745723e-01  7.94867932125686849076e-05 2
8.49999999999999977796e-01  2.50000000000000000000e-01  3.20941179501686046915e-01  7.85814584170485552761e-05 2
8.58333333333333281523e-01  2.50000000000000000000e-01  3.04339693661469179453e-01  7.76222677347782052948e-05 2
8.66666666666666696273e-01  2.50000000000000000000e-01  2.87529628597265829448e-01  7.66098786847413393275e-05 2
8.75000000000000000000e-01  2.50000000000000000000e-01  2.70522505088072184876e-01  7.55449850263767430647e-05 2
8.83333333333333303727e-01  2.50000000000000000000e-01  2.53329978966775337668e-01  7.44283166252412975439e-05 2
8.91666666666666718477e-01  2.50000000000000000000e-01  2.35963833131988404146e-01  7.32606387941758807614e-05 2
9.00000000000000022204e-01  2.50000000000000000000e-01  2.18435969472687036008e-01  7.20427517235389114347e-05 2
9.08333333333333325932e-01  2.50000000000000000000e-01  2.00758400710989909355e-01  7.07754901885238041359e-05 2
9.16666666666666629659e-01  2.50000000000000000000e-01  1.82943242169570918776e-01  6.94597226485738072910e-05 2
9.25000000000000044409e-01  2.50000000000000000000e-01  1.65002703468157763123e-01  6.80963509139820288851e-05 2
9.33333333333333348136e-01  2.50000000000000000000e-01  1.46949080155889977295e-01  6.66863093084779645636e-05 2
9.41666666666666651864e-01  2.50000000000000000000e-01  1.28794745284328437940e-01  6.52305642631634263751e-05 2
9.49999999999999955591e-01  2.50000000000000000000e-01  1.10552140927805006565e-01  6.37301134322060258697e-05 2
9.58333333333333370341e-01  2.50000000000000000000e-01  9.22337696560834863213e-02  6.21859851737543989358e-05 2
9.66666666666666674068e-01  2.50000000000000000000e-01  7.38521859658334833831e-02  6.05992377334108045517e-05 2
9.74999999999999977796e-01  2.50000000000000000000e-01  5.54199876763066673346e-02  5.89709586170591992804e-05 2
9.83333333333333281523e-01  2.50000000000000000000e-01  3.69498072955224132752e-02  5.73022637458883710160e-05 2
9.91666666666666696273e-01  2.50000000000000000000e-01  1.84807838404898380769e-02  2.91138187768630318786e-05 2
1.00000000000000000000e+00  2.50000000000000000000e-01  0.00000000000000000000e+00  8.65956056235493162558e-17 2
0.00000000000000000000e+00  2.58333333333333359239e-01  0.00000000000000000000e+00  0.00000000000000000000e+00 2
8.33333333333333321769e-03  2.58333333333333359239e-01  1.90129013124751972130e-02  2.48138986305435071955e-05 2
1.66666666666666664354e-02  2.58333333333333359239e-01  3.80118907228661276343e-02  4.87293818141401602340e-05 2
2.50000000000000013878e-02  2.58333333333333359239e-01  5.69590504564076935412e-02  4.68332426293016634844e-05 2
3.33333333333333328707e-02  2.58333333333333359239e-01  7.58671733019357363847e-02  4.49050062805989025350e-05 2
4.16666666666666643537e-02  2.58333333333333359239e-01  9.47233005765307362056e-02  4.29459942818677387066e-05 2
5.00000000000000027756e-02  2.58333333333333359239e-01  1.13514509232447269316e-01  4.09575492461011769763e-05 2
5.83333333333333342585e-02  2.58333333333333359239e-01  1.32227920713908903005e-01  3.89410339487195056307e-05 2
6.66666666666666657415e-02  2.58333333333333359239e-01  1.50850709783446751411e-01  3.68978304133571466394e-05 2
7.49999999999999972244e-02  2.58333333333333359239e-01  1.69370113311663489375e-01  3.48293389514919837779e-05 2
8.33333333333333287074e-02  2.58333333333333359239e-01  1.87773439024436938904e-01  3.27369771950525301207e-05 2
9.16666666666666601904e-02  2.58333333333333359239e-01  2.06048074201599512589e-01  3.06221791536165355296e-05 2
1.00000000000000005551e-01  2.58333333333333359239e-01  2.24181494321031155037e-01  2.84863941960589173163e-05 2
1.08333333333333337034e-01  2.58333333333333359239e-01  2.42161271642378245206e-01  2.63310860943999358597e-05 2
1.16666666666666668517e-01  2.58333333333333359239e-01  2.59975083724358513315e-01  2.41577319731178796758e-05 2
1.25000000000000000000e-01  2.58333333333333359239e-01  2.77610721869999965694e-01  2.19678213496665719617e-05 2
1.33333333333333331483e-01  2.58333333333333359239e-01  2.95056099493847423521e-01  1.97628550895334598181e-05 2
1.41666666666666662966e-01  2.58333333333333359239e-01  3.12299260405459355727e-01  1.75443443322653713778e-05 2
1.49999999999999994449e-01  2.58333333333333359239e-01  3.29328387003720246540e-01  1.53138095924099104650e-05 2
1.58333333333333325932e-01  2.58333333333333359239e-01  3.46131808375818084134e-01  1.30727795016882808454e-05 2
1.66666666666666657415e-01  2.58333333333333359239e-01  3.62698008296147789142e-01  1.08227900040280822225e-05 2
1.74999999999999988898e-01  2.58333333333333359239e-01  3.79015633118735872920e-01  8.56538308147136717707e-06 2
1.83333333333333320381e-01  2.58333333333333359239e-01  3.95073499558667828868e-01  6.30210590335522624628e-06 2
1.91666666666666679619e-01  2.58333333333333359239e-01  4.10860602356332205165e-01  4.03450954483686174967e-06 2
2.00000000000000011102e-01  2.58333333333333359239e-01  4.26366121820109356122e-01  1.76414815783454415055e-06 2
2.08333333333333342585e-01  2.58333333333333359239e-01  4.41579431241433340016e-01  5.07422308781979580772e-07 2
2.16666666666666674068e-01  2.58333333333333359239e-01  4.56490104178005617896e-01  2.77864497716384661885e-06 2
2.25000000000000005551e-01  2.58333333333333359239e-01  4.71087921599327663635e-01  5.04796333711254874288e-06 2
2.33333333333333337034e-01  2.58333333333333359239e-01  4.85362878890577220670e-01  7.31382205021446907267e-06 2
2.41666666666666668517e-01  2.58333333333333359239e-01  4.99305192709017020558e-01  9.57466826984054719674e-06 2
2.50000000000000000000e-01  2.58333333333333359239e-01  5.12905307689283218586e-01  1.18289524319026284616e-05 2
2.58333333333333359239e-01  2.58333333333333359239e-01  5.26153902991758126717e-01  1.40751297137420294803e-05 2
2.66666666666666662966e-01  2.58333333333333359239e-01  5.39041898691219545370e-01  1.63116604814383947542e-05 2
2.75000000000000022204e-01  2.58333333333333359239e-01  5.51560461998938489359e-01  1.85370121752459482423e-05 2
2.83333333333333325932e-01  2.58333333333333359239e-01  5.63701013317162824556e-01  2.07496594268885559131e-05 2
2.91666666666666685170e-01  2.58333333333333359239e-01  5.75455232118267767660e-01  2.29480859843533835374e-05 2
2.99999999999999988898e-01  2.58333333333333359239e-01  5.86815062647999652334e-01  2.51307849793436233199e-05 2
3.08333333333333348136e-01  2.58333333333333359239e-01  5.97772719445790357007e-01  2.72962606582272115929e-05 2
3.16666666666666651864e-01  2.58333333333333359239e-01  6.08320692681093122545e-01  2.94430288367841797026e-05 2
3.25000000000000011102e-01  2.58333333333333359239e-01  6.18451753299981699108e-01  3.15696181815150467287e-05 2
3.33333333333333314830e-01  2.58333333333333359239e-01  6.28158957979439769304e-01  3.36745713598318729964e-05 2
3.41666666666666674068e-01  2.58333333333333359239e-01  6.37435653886404329782e-01  3.57564456034964450737e-05 2
3.49999999999999977796e-01  2.58333333333333359239e-01  6.46275483236759318295e-01  3.78138142226314144523e-05 2
3.58333333333333337034e-01  2.58333333333333359239e-01  6.54672387653128295959e-01  3.98452670985482981791e-05 2
3.66666666666666640761e-01  2.58333333333333359239e-01  6.62620612316584089996e-01  4.18494120499879329600e-05 2
3.75000000000000000000e-01  2.58333333333333359239e-01  6.70114709911019179600e-01  4.38248754818237884479e-05 2
3.83333333333333359239e-01  2.58333333333333359239e-01  6.77149544356265620237e-01  4.57703035253720358355e-05 2
3.91666666666666662966e-01  2.58333333333333359239e-01  6.83720294328119204685e-01  4.76843629546586100787e-05 2
4.00000000000000022204e-01  2.58333333333333359239e-01  6.89822456562933172819e-01  4.95657418012607209334e-05 2
4.08333333333333325932e-01  2.58333333333333359239e-01  6.95451848943327344266e-01  5.14131508565496275764e-05 2
4.16666666666666685170e-01  2.58333333333333359239e-01  7.00604613365121808854e-01  5.32253238353375124348e-05 2
4.24999999999999988898e-01  2.58333333333333359239e-01  7.05277218380837456202e-01  5.50010188953287126878e-05 2
4.33333333333333348136e-01  2.58333333333333359239e-01  7.09466461620480437489e-01  5.67390189820660140185e-05 2
4.41666666666666651864e-01  2.58333333333333359239e-01  7.13169471986020542253e-01  5.84381329279404226895e-05 2
4.50000000000000011102e-01  2.58333333333333359239e-01  7.16383711618949203803e-01  6.00971964189733753869e-05 2
4.58333333333333314830e-01  2.58333333333333359239e-01  7.19106977640254996231e-01  6.17150721373693755822e-05 2
4.66666666666666674068e-01  2.58333333333333359239e-01  7.21337403659159992486e-01  6.32906515494191523885e-05 2
4.74999999999999977796e-01  2.58333333333333359239e-01  7.23073461053253874198e-01  6.48228546606954836307e-05 2
4.83333333333333337034e-01  2.58333333333333359239e-01  7.24313960015503632839e-01  6.63106313888439657944e-05 2
4.91666666666666640761e-01  2.58333333333333359239e-01  7.25058050369751572184e-01  6.77529622192807323700e-05 2
5.00000000000000000000e-01  2.58333333333333359239e-01  7.25305222153828754728e-01  6.91488584588784149787e-05 2
5.08333333333333303727e-01  2.58333333333333359239e-01  7.25055305968401953010e-01  7.04973635688999067384e-05 2
5.16666666666666718477e-01  2.58333333333333359239e-01  7.24308473093566052015e-01  7.17975533264247900433e-05 2
5.25000000000000022204e-01  2.58333333333333359239e-01  7.23065235371235348616e-01  7.30485366792210655262e-05 2
5.33333333333333325932e-01  2.58333333333333359239e-01  7.21326444854641479765e-01  7.42494560679318738039e-05 2
5.41666666666666629659e-01  2.58333333333333359239e-01  7.19093293223767249245e-01  7.53994886252273843752e-05 2
5.50000000000000044409e-01  2.58333333333333359239e-01  7.16367310969078796568e-01  7.64978462892695887376e-05 2
5.58333333333333348136e-01  2.58333333333333359239e-01  7.13150366343038411010e-01  7.75437759101826884489e-05 2
5.66666666666666651864e-01  2.58333333333333359239e-01  7.09444664078323738998e-01  7.85365611387645046193e-05 2
5.74999999999999955591e-01  2.58333333333333359239e-01  7.05252743878522103671e-01  7.94755212107922659470e-05 2
5.83333333333333370341e-01  2.58333333333333359239e-01  7.00577478676337128682e-01  8.03600126200176845259e-05 2
5.91666666666666674068e-01  2.58333333333333359239e-01  6.95422072664601431669e-01  8.11894295824622247437e-05 2
5.99999999999999977796e-01  2.58333333333333359239e-01  6.89790059101681785059e-01  8.19632030527595034641e-05 2
6.08333333333333281523e-01  2.58333333333333359239e-01  6.83685297887839271702e-01  8.26808032345915933092e-05 2
6.16666666666666696273e-01  2.58333333333333359239e-01  6.77111972921681459781e-01  8.33417381095324927287e-05 2
6.25000000000000000000e-01  2.58333333333333359239e-01  6.70074589231941186718e-01  8.39455545598166708032e-05 2
6.33333333333333303727e-01  2.58333333333333359239e-01  6.62577969889428852746e-01  8.44918392053362055094e-05 2
6.41666666666666718477e-01  2.58333333333333359239e-01  6.54627252703163797776e-01  8.49802170630464814849e-05 2
6.50000000000000022204e-01  2.58333333333333359239e-01  6.46227886697068321098e-01  8.54103539137396339243e-05 2
6.58333333333333325932e-01  2.58333333333333359239e-01  6.37385628377332702499e-01  8.57819546751237282933e-05 2
6.66666666666666629659e-01  2.58333333333333359239e-01  6.28106537785972585120e-01  8.60947648270160570405e-05 2
6.75000000000000044409e-01  2.58333333333333359239e-01  6.18396974348210948236e-01  8.63485699522659189142e-05 2
6.83333333333333348136e-01  2.58333333333333359239e-01  6.08263592513875406276e-01  8.65431960545004486107e-05 2
6.91666666666666651864e-01  2.58333333333333359239e-01  5.97713337196729255218e-01  8.66785097193289999495e-05 2
6.99999999999999955591e-01  2.58333333333333359239e-01  5.86753439014659261552e-01  8.67544183197344054292e-05 2
7.08333333333333370341e-01  2.58333333333333359239e-01  5.75391409334495729233e-01  8.67708697563918107676e-05 2
7.16666666666666674068e-01  2.58333333333333359239e-01  5.63635035123780880895e-01  8.67278528089432398929e-05 2
7.24999999999999977796e-01  2.58333333333333359239e-01  5.51492373614206332633e-01  8.66253969074026741737e-05 2
7.33333333333333281523e-01  2.58333333333333359239e-01  5.38971746779525084925e-01  8.64635721762319064965e-05 2
7.41666666666666696273e-01  2.58333333333333359239e-01  5.26081735631644620277e-01  8.62424898272484696804e-05 2
7.50000000000000000000e-01  2.58333333333333359239e-01  5.12831174340672157896e-01  8.59623010430743406118e-05 2
7.58333333333333303727e-01  2.58333333333333359239e-01  4.99229144179277550819e-01  8.56231980095878419945e-05 2
7.66666666666666718477e-01  2.58333333333333359239e-01  4.85284967299445757494e-01  8.52254131815111115600e-05 2
7.75000000000000022204e-01  2.58333333333333359239e-01  4.71008200343666250109e-01  8.47692189985815858222e-05 2
7.83333333333333325932e-01  2.58333333333333359239e-01  4.56408627894600016361e-01  8.42549283826543593534e-05 2
7.91666666666666629659e-01  2.58333333333333359239e-01  4.41496255770217782555e-01  8.36828935245059746251e-05 2
8.00000000000000044409e-01  2.58333333333333359239e-01  4.26281304165342767032e-01  8.30535066088100570880e-05 2
8.08333333333333348136e-01  2.58333333333333359239e-01  4.10774200647764764494e-01  8.23671990226038097660e-05 2
8.16666666666666651864e-01  2.58333333333333359239e-01  3.94985573011782886699e-01  8.16244409818644989230e-05 2
8.24999999999999955591e-01  2.58333333333333359239e-01  3.78926241993903845096e-01  8.08257417506674791241e-05 2
8.33333333333333370341e-01  2.58333333333333359239e-01  3.62607213857647769917e-01  7.99716484959911433350e-05 2
8.41666666666666674068e-01  2.58333333333333359239e-01  3.46039672849638324514e-01  7.90627466782378718335e-05 2
8.49999999999999977796e-01  2.58333333333333359239e-01  3.29234973534916652849e-01  7.80996592112948029296e-05 2
8.58333333333333281523e-01  2.58333333333333359239e-01  3.12204633014944055169e-01  7.70830461833682534234e-05 2
8.66666666666666696273e-01  2.58333333333333359239e-01  2.94960323034548943522e-01  7.60136042088355168289e-05 2
8.75000000000000000000e-01  2.58333333333333359239e-01  2.77513861982245702009e-01  7.48920664047081352521e-05 2
8.83333333333333303727e-01  2.58333333333333359239e-01  2.59877206791154058418e-01  7.37192012316145728335e-05 2
8.91666666666666718477e-01  2.58333333333333359239e-01  2.42062444743657290136e-01  7.24958126263886004637e-05 2
9.00000000000000022204e-01  2.58333333333333359239e-01  2.24081785187792925651e-01  7.12227390422537354198e-05 2
9.08333333333333325932e-01  2.58333333333333359239e-01  2.05947551169535808535e-01  6.99008529100875186657e-05 2
9.16666666666666629659e-01  2.58333333333333359239e-01  1.87672170986975000995e-01  6.85310602670796686908e-05 2
9.25000000000000044409e-01  2.58333333333333359239e-01  1.69268169672927265568e-01  6.71142997848428457530e-05 2
9.33333333333333348136e-01  2.58333333333333359239e-01  1.50748160410423798217e-01  6.56515426095960474839e-05 2
9.41666666666666651864e-01  2.58333333333333359239e-01  1.32124835888878328083e-01  6.41437910820219503449e-05 2
9.49999999999999955591e-01  2.58333333333333359239e-01  1.13410959604586331073e-01  6.25920786149203323134e-05 2
9.58333333333333370341e-01  2.58333333333333359239e-01  9.46193571135773570102e-02  6.09974686715114566837e-05 2
9.66666666666666674068e-01  2.58333333333333359239e-01  7.57629072415378357341e-02  5.93610541175099148958e-05 2
9.74999999999999977796e-01  2.58333333333333359239e-01  5.68545332573418202293e-02  5.76839564366618540170e-05 2
9.83333333333333281523e-01  2.58333333333333359239e-01  3.79071940159712086893e-02  5.59673250810840960945e-05 2
9.91666666666666696273e-01  2.58333333333333359239e-01  1.89596533030286611143e-02  2.84341108158676914019e-05 2
1.00000000000000000000e+00  2.58333333333333359239e-01  0.00000000000000000000e+00  8.88327401643722652196e-17 2
0.00000000000000000000e+00  2.66666666666666662966e-01  0.00000000000000000000e+00  0.00000000000000000000e+00 2
8.33333333333333321769e-03  2.66666666666666662966e-01  1.94772896960159376534e-02  2.40260142307796575878e-05 2
1.66666666666666664354e-02  2.66666666666666662966e-01  3.89403738368345395116e-02  4.71787684795110795477e-05 2
2.50000000000000013878e-02  2.66666666666666662966e-01  5.83517118842675347468e-02  4.52408824840461187833e-05 2
3.33333333333333328707e-02  2.66666666666666662966e-01  7.77230585831063247593e-02  4.32719906457990077797e-05 2
4.16666666666666643537e-02  2.66666666666666662966e-01  9.70411377799482582907e-02  4.12734423492350233076e-05 2
5.00000000000000027756e-02  2.66666666666666662966e-01  1.16292709828264603789e-01  3.92466072927227793699e-05 2
5.83333333333333342585e-02  2.66666666666666662966e-01  1.35464580662221945051e-01  3.71928745787897252484e-05 2
6.66666666666666657415e-02  2.66666666666666662966e-01  1.54543610839193462647e-01  3.51136517197925268619e-05 2
7.49999999999999972244e-02  2.66666666666666662966e-01  1.73516724544923089946e-01  3.30103637194989474324e-05 2
8.33333333333333287074e-02  2.66666666666666662966e-01  1.92370918555008096895e-01  3.08844520695294999513e-05 2
9.16666666666666601904e-02  2.66666666666666662966e-01  2.11093271146651551007e-01  2.87373737530571826682e-05 2
1.00000000000000005551e-01  2.66666666666666662966e-01  2.29670950954597996585e-01  2.65706002788301809403e-05 2
1.08333333333333337034e-01  2.66666666666666662966e-01  2.48091225765074058218e-01  2.43856166362577120310e-05 2
1.16666666666666668517e-01  2.66666666666666662966e-01  2.66341471241854144125e-01  2.21839203203844093082e-05 2
1.25000000000000000000e-01  2.66666666666666662966e-01  2.84409179578299586844e-01  1.99670202547519437530e-05 2
1.33333333333333331483e-01  2.66666666666666662966e-01  3.02281968069595896598e-01  1.77364357692444407633e-05 2
1.41666666666666662966e-01  2.66666666666666662966e-01  3.19947587599328342467e-01  1.54936956463513908488e-05 2
1.49999999999999994449e-01  2.66666666666666662966e-01  3.37393931034238814259e-01  1.32403368984235214612e-05 2
1.58333333333333325932e-01  2.66666666666666662966e-01  3.54609041522029211357e-01  1.09779038927615424370e-05 2
1.66666666666666657415e-01  2.66666666666666662966e-01  3.71581120685866128639e-01  8.70794716911760247058e-06 2
1.74999999999999988898e-01  2.66666666666666662966e-01  3.88298536710502129043e-01  6.43202247940788396363e-06 2