Titile = 'Poisson'  
VARIABLES = X, Y, U, Error 
zone N= 2121, E = 4000
DATAPACKING=POINT, ZONETYPE=FETRIANGLE
0.00000000000000000000e+00  0.00000000000000000000e+00  0.00000000000000000000e+00  0.00000000000000000000e+00
1.00000000000000002082e-02  0.00000000000000000000e+00  0.00000000000000000000e+00  0.00000000000000000000e+00
2.00000000000000004163e-02  0.00000000000000000000e+00  0.00000000000000000000e+00  0.00000000000000000000e+00
2.99999999999999988898e-02  0.00000000000000000000e+00  0.00000000000000000000e+00  0.00000000000000000000e+00
4.00000000000000008327e-02  0.00000000000000000000e+00  0.00000000000000000000e+00  0.00000000000000000000e+00
5.00000000000000027756e-02  0.00000000000000000000e+00  0.00000000000000000000e+00  0.00000000000000000000e+00
5.99999999999999977796e-02  0.00000000000000000000e+00  0.00000000000000000000e+00  0.00000000000000000000e+00
7.00000000000000066613e-02  0.00000000000000000000e+00  0.00000000000000000000e+00  0.00000000000000000000e+00
8.00000000000000016653e-02  0.00000000000000000000e+00  0.00000000000000000000e+00  0.00000000000000000000e+00
8.99999999999999966693e-02  0.00000000000000000000e+00  0.00000000000000000000e+00  0.00000000000000000000e+00
1.00000000000000005551e-01  0.00000000000000000000e+00  0.00000000000000000000e+00  0.00000000000000000000e+00
1.10000000000000000555e-01  0.00000000000000000000e+00  0.00000000000000000000e+00  0.00000000000000000000e+00
1.19999999999999995559e-01  0.00000000000000000000e+00  0.00000000000000000000e+00  0.00000000000000000000e+00
1.30000000000000004441e-01  0.00000000000000000000e+00  0.00000000000000000000e+00  0.00000000000000000000e+00
1.40000000000000013323e-01  0.00000000000000000000e+00  0.00000000000000000000e+00  0.00000000000000000000e+00
1.49999999999999994449e-01  0.00000000000000000000e+00  0.00000000000000000000e+00  0.00000000000000000000e+00
1.60000000000000003331e-01  0.00000000000000000000e+00  0.00000000000000000000e+00  0.00000000000000000000e+00
1.70000000000000012212e-01  0.00000000000000000000e+00  0.00000000000000000000e+00  0.00000000000000000000e+00
1.79999999999999993339e-01  0.00000000000000000000e+00  0.00000000000000000000e+00  0.00000000000000000000e+00
1.90000000000000002220e-01  0.00000000000000000000e+00  0.00000000000000000000e+00  0.00000000000000000000e+00
2.00000000000000011102e-01  0.00000000000000000000e+00  0.00000000000000000000e+00  0.00000000000000000000e+00
2.09999999999999992228e-01  0.00000000000000000000e+00  0.00000000000000000000e+00  0.00000000000000000000e+00
2.20000000000000001110e-01  0.00000000000000000000e+00  0.00000000000000000000e+00  0.00000000000000000000e+00
2.30000000000000009992e-01  0.00000000000000000000e+00  0.00000000000000000000e+00  0.00000000000000000000e+00
2.39999999999999991118e-01  0.00000000000000000000e+00  0.00000000000000000000e+00  0.00000000000000000000e+00
2.50000000000000000000e-01  0.00000000000000000000e+00  0.00000000000000000000e+00  0.00000000000000000000e+00
2.60000000000000008882e-01  0.00000000000000000000e+00  0.00000000000000000000e+00  0.00000000000000000000e+00
2.70000000000000017764e-01  0.00000000000000000000e+00  0.00000000000000000000e+00  0.00000000000000000000e+00
2.80000000000000026645e-01  0.00000000000000000000e+00  0.00000000000000000000e+00  0.00000000000000000000e+00
2.89999999999999980016e-01  0.00000000000000000000e+00  0.00000000000000000000e+00  0.00000000000000000000e+00
2.99999999999999988898e-01  0.00000000000000000000e+00  0.00000000000000000000e+00  0.00000000000000000000e+00
3.09999999999999997780e-01  0.00000000000000000000e+00  0.00000000000000000000e+00  0.00000000000000000000e+00
3.20000000000000006661e-01  0.00000000000000000000e+00  0.00000000000000000000e+00  0.00000000000000000000e+00
3.30000000000000015543e-01  0.00000000000000000000e+00  0.00000000000000000000e+00  0.00000000000000000000e+00
3.40000000000000024425e-01  0.00000000000000000000e+00  0.00000000000000000000e+00  0.00000000000000000000e+00
3.49999999999999977796e-01  0.00000000000000000000e+00  0.00000000000000000000e+00  0.00000000000000000000e+00
3.59999999999999986677e-01  0.00000000000000000000e+00  0.00000000000000000000e+00  0.00000000000000000000e+00
3.69999999999999995559e-01  0.00000000000000000000e+00  0.00000000000000000000e+00  0.00000000000000000000e+00
3.80000000000000004441e-01  0.00000000000000000000e+00  0.00000000000000000000e+00  0.00000000000000000000e+00
3.90000000000000013323e-01  0.00000000000000000000e+00  0.00000000000000000000e+00  0.00000000000000000000e+00
4.00000000000000022204e-01  0.00000000000000000000e+00  0.00000000000000000000e+00  0.00000000000000000000e+00
4.09999999999999975575e-01  0.00000000000000000000e+00  0.00000000000000000000e+00  0.00000000000000000000e+00
4.19999999999999984457e-01  0.00000000000000000000e+00  0.00000000000000000000e+00  0.00000000000000000000e+00
4.29999999999999993339e-01  0.00000000000000000000e+00  0.00000000000000000000e+00  0.00000000000000000000e+00
4.40000000000000002220e-01  0.00000000000000000000e+00  0.00000000000000000000e+00  0.00000000000000000000e+00
4.50000000000000011102e-01  0.00000000000000000000e+00  0.00000000000000000000e+00  0.00000000000000000000e+00
4.60000000000000019984e-01  0.00000000000000000000e+00  0.00000000000000000000e+00  0.00000000000000000000e+00
4.69999999999999973355e-01  0.00000000000000000000e+00  0.00000000000000000000e+00  0.00000000000000000000e+00
4.79999999999999982236e-01  0.00000000000000000000e+00  0.00000000000000000000e+00  0.00000000000000000000e+00
4.89999999999999991118e-01  0.00000000000000000000e+00  0.00000000000000000000e+00  0.00000000000000000000e+00
5.00000000000000000000e-01  0.00000000000000000000e+00  0.00000000000000000000e+00  0.00000000000000000000e+00
5.10000000000000008882e-01  0.00000000000000000000e+00  0.00000000000000000000e+00  0.00000000000000000000e+00
5.20000000000000017764e-01  0.00000000000000000000e+00  0.00000000000000000000e+00  0.00000000000000000000e+00
5.30000000000000026645e-01  0.00000000000000000000e+00  0.00000000000000000000e+00  0.00000000000000000000e+00
5.40000000000000035527e-01  0.00000000000000000000e+00  0.00000000000000000000e+00  0.00000000000000000000e+00
5.50000000000000044409e-01  0.00000000000000000000e+00  0.00000000000000000000e+00  0.00000000000000000000e+00
5.60000000000000053291e-01  0.00000000000000000000e+00  0.00000000000000000000e+00  0.00000000000000000000e+00
5.69999999999999951150e-01  0.00000000000000000000e+00  0.00000000000000000000e+00  0.00000000000000000000e+00
5.79999999999999960032e-01  0.00000000000000000000e+00  0.00000000000000000000e+00  0.00000000000000000000e+00
5.89999999999999968914e-01  0.00000000000000000000e+00  0.00000000000000000000e+00  0.00000000000000000000e+00
5.99999999999999977796e-01  0.00000000000000000000e+00  0.00000000000000000000e+00  0.00000000000000000000e+00
6.09999999999999986677e-01  0.00000000000000000000e+00  0.00000000000000000000e+00  0.00000000000000000000e+00
6.19999999999999995559e-01  0.00000000000000000000e+00  0.00000000000000000000e+00  0.00000000000000000000e+00
6.30000000000000004441e-01  0.00000000000000000000e+00  0.00000000000000000000e+00  0.00000000000000000000e+00
6.40000000000000013323e-01  0.00000000000000000000e+00  0.00000000000000000000e+00  0.00000000000000000000e+00
6.50000000000000022204e-01  0.00000000000000000000e+00  0.00000000000000000000e+00  0.00000000000000000000e+00
6.60000000000000031086e-01  0.00000000000000000000e+00  0.00000000000000000000e+00  0.00000000000000000000e+00
6.70000000000000039968e-01  0.00000000000000000000e+00  0.00000000000000000000e+00  0.00000000000000000000e+00
6.80000000000000048850e-01  0.00000000000000000000e+00  0.00000000000000000000e+00  0.00000000000000000000e+00
6.89999999999999946709e-01  0.00000000000000000000e+00  0.00000000000000000000e+00  0.00000000000000000000e+00
6.99999999999999955591e-01  0.00000000000000000000e+00  0.00000000000000000000e+00  0.00000000000000000000e+00
7.09999999999999964473e-01  0.00000000000000000000e+00  0.00000000000000000000e+00  0.00000000000000000000e+00
7.19999999999999973355e-01  0.00000000000000000000e+00  0.00000000000000000000e+00  0.00000000000000000000e+00
7.29999999999999982236e-01  0.00000000000000000000e+00  0.00000000000000000000e+00  0.00000000000000000000e+00
7.39999999999999991118e-01  0.00000000000000000000e+00  0.00000000000000000000e+00  0.00000000000000000000e+00
7.50000000000000000000e-01  0.00000000000000000000e+00  0.00000000000000000000e+00  0.00000000000000000000e+00
7.60000000000000008882e-01  0.00000000000000000000e+00  0.00000000000000000000e+00  0.00000000000000000000e+00
7.70000000000000017764e-01  0.00000000000000000000e+00  0.00000000000000000000e+00  0.00000000000000000000e+00
7.80000000000000026645e-01  0.00000000000000000000e+00  0.00000000000000000000e+00  0.00000000000000000000e+00
7.90000000000000035527e-01  0.00000000000000000000e+00  0.00000000000000000000e+00  0.00000000000000000000e+00
8.00000000000000044409e-01  0.00000000000000000000e+00  0.00000000000000000000e+00  0.00000000000000000000e+00
8.10000000000000053291e-01  0.00000000000000000000e+00  0.00000000000000000000e+00  0.00000000000000000000e+00
8.19999999999999951150e-01  0.00000000000000000000e+00  0.00000000000000000000e+00  0.00000000000000000000e+00
8.29999999999999960032e-01  0.00000000000000000000e+00  0.00000000000000000000e+00  0.00000000000000000000e+00
8.39999999999999968914e-01  0.00000000000000000000e+00  0.00000000000000000000e+00  0.00000000000000000000e+00
8.49999999999999977796e-01  0.00000000000000000000e+00  0.00000000000000000000e+00  0.00000000000000000000e+00
8.59999999999999986677e-01  0.00000000000000000000e+00  0.00000000000000000000e+00  0.00000000000000000000e+00
8.69999999999999995559e-01  0.00000000000000000000e+00  0.00000000000000000000e+00  0.00000000000000000000e+00
8.80000000000000004441e-01  0.00000000000000000000e+00  0.00000000000000000000e+00  0.00000000000000000000e+00
8.90000000000000013323e-01  0.00000000000000000000e+00  0.00000000000000000000e+00  0.00000000000000000000e+00
9.00000000000000022204e-01  0.00000000000000000000e+00  0.00000000000000000000e+00  0.00000000000000000000e+00
9.10000000000000031086e-01  0.00000000000000000000e+00  0.00000000000000000000e+00  0.00000000000000000000e+00
9.20000000000000039968e-01  0.00000000000000000000e+00  0.00000000000000000000e+00  0.00000000000000000000e+00
9.30000000000000048850e-01  0.00000000000000000000e+00  0.00000000000000000000e+00  0.00000000000000000000e+00
9.39999999999999946709e-01  0.00000000000000000000e+00  0.00000000000000000000e+00  0.00000000000000000000e+00
9.49999999999999955591e-01  0.00000000000000000000e+00  0.00000000000000000000e+00  0.00000000000000000000e+00
9.59999999999999964473e-01  0.00000000000000000000e+00  0.00000000000000000000e+00  0.00000000000000000000e+00
9.69999999999999973355e-01  0.00000000000000000000e+00  0.00000000000000000000e+00  0.00000000000000000000e+00
9.79999999999999982236e-01  0.00000000000000000000e+00  0.00000000000000000000e+00  0.00000000000000000000e+00
9.89999999999999991118e-01  0.00000000000000000000e+00  0.00000000000000000000e+00  0.00000000000000000000e+00
1.00000000000000000000e+00  0.00000000000000000000e+00  0.00000000000000000000e+00  0.00000000000000000000e+00
0.00000000000000000000e+00  1.00000000000000002082e-02  0.00000000000000000000e+00  0.00000000000000000000e+00
1.00000000000000002082e-02  1.00000000000000002082e-02  9.88609150638759164378e-04  1.97336477454016639976e-06
2.00000000000000004163e-02  1.00000000000000002082e-02  2.02777434769778721127e-03  5.54764663720152748083e-05
2.99999999999999988898e-02  1.00000000000000002082e-02  3.01121727359970328339e-03  5.52037167028383325695e-05
4.00000000000000008327e-02  1.00000000000000002082e-02  3.99168849160125207426e-03  5.48764876301087445309e-05
5.00000000000000027756e-02  1.00000000000000002082e-02  4.96822039498398624474e-03  5.44951020894114679383e-05
5.99999999999999977796e-02  1.00000000000000002082e-02  5.93984926465737292367e-03  5.40599364622102590561e-05
7.00000000000000066613e-02  1.00000000000000002082e-02  6.90561622023323773423e-03  5.35714202044568210681e-05
8.00000000000000016653e-02  1.00000000000000002082e-02  7.86456816632488849017e-03  5.30300354227254341910e-05
8.99999999999999966693e-02  1.00000000000000002082e-02  8.81575873313721058988e-03  5.24363163984364194503e-05
1.00000000000000005551e-01  1.00000000000000002082e-02  9.75824921041934002786e-03  5.17908490605418353470e-05
1.10000000000000000555e-01  1.00000000000000002082e-02  1.06911094738585642216e-02  5.10942704074809211923e-05
1.19999999999999995559e-01  1.00000000000000002082e-02  1.16134189030002617227e-02  5.03472678780973736945e-05
1.30000000000000004441e-01  1.00000000000000002082e-02  1.25242672897898730394e-02  4.95505786739357939608e-05
1.40000000000000013323e-01  1.00000000000000002082e-02  1.34227557368374952884e-02  4.87049890308538513395e-05
1.49999999999999994449e-01  1.00000000000000002082e-02  1.43079975445217968261e-02  4.78113334438281384342e-05
1.60000000000000003331e-01  1.00000000000000002082e-02  1.51791190860552007574e-02  4.68704938430871548283e-05
1.70000000000000012212e-01  1.00000000000000002082e-02  1.60352606696478709736e-02  4.58833987236166584989e-05
1.79999999999999993339e-01  1.00000000000000002082e-02  1.68755773869201271264e-02  4.48510222292204663308e-05
1.90000000000000002220e-01  1.00000000000000002082e-02  1.76992399467245965783e-02  4.37743831907706770767e-05
2.00000000000000011102e-01  1.00000000000000002082e-02  1.85054354935568071694e-02  4.26545441210776643537e-05
2.09999999999999992228e-01  1.00000000000000002082e-02  1.92933684097451388362e-02  4.14926101660467727683e-05
2.20000000000000001110e-01  1.00000000000000002082e-02  2.00622611006297420222e-02  4.02897280143352243265e-05
2.30000000000000009992e-01  1.00000000000000002082e-02  2.08113547619541011668e-02  3.90470847652507613290e-05
2.39999999999999991118e-01  1.00000000000000002082e-02  2.15399101287136671146e-02  3.77659067576606444216e-05
2.50000000000000000000e-01  1.00000000000000002082e-02  2.22472082047210500955e-02  3.64474583596299805954e-05
2.60000000000000008882e-01  1.00000000000000002082e-02  2.29325509721685222297e-02  3.50930407206975769618e-05
2.70000000000000017764e-01  1.00000000000000002082e-02  2.35952620804867514714e-02  3.37039904872681039816e-05
2.80000000000000026645e-01  1.00000000000000002082e-02  2.42346875138221944102e-02  3.22816784845032789253e-05
2.89999999999999980016e-01  1.00000000000000002082e-02  2.48501962364705009101e-02  3.08275083622140677608e-05
2.99999999999999988898e-01  1.00000000000000002082e-02  2.54411808156342969522e-02  2.93429152113493241227e-05
3.09999999999999997780e-01  1.00000000000000002082e-02  2.60070580208837769109e-02  2.78293641455228113468e-05
3.20000000000000006661e-01  1.00000000000000002082e-02  2.65472693997370334795e-02  2.62883488573867341032e-05
3.30000000000000015543e-01  1.00000000000000002082e-02  2.70612818287833609143e-02  2.47213901426908411185e-05
3.40000000000000024425e-01  1.00000000000000002082e-02  2.75485880398127665203e-02  2.31300344005098967859e-05
3.49999999999999977796e-01  1.00000000000000002082e-02  2.80087071204281091996e-02  2.15158521068015140543e-05
3.59999999999999986677e-01  1.00000000000000002082e-02  2.84411849886478523830e-02  1.98804362647637955508e-05
3.69999999999999995559e-01  1.00000000000000002082e-02  2.88455948410301088458e-02  1.82254008327664696054e-05
3.80000000000000004441e-01  1.00000000000000002082e-02  2.92215375738745265777e-02  1.65523791299145017764e-05
3.90000000000000013323e-01  1.00000000000000002082e-02  2.95686421770928152541e-02  1.48630222275500378792e-05
4.00000000000000022204e-01  1.00000000000000002082e-02  2.98865661003477160740e-02  1.31589973166555684880e-05
4.09999999999999975575e-01  1.00000000000000002082e-02  3.01749955911102193951e-02  1.14419860639085324561e-05
4.19999999999999984457e-01  1.00000000000000002082e-02  3.04336460042960617323e-02  9.71368295271668458213e-06
4.29999999999999993339e-01  1.00000000000000002082e-02  3.06622620831740258507e-02  7.97579360894973277141e-06
4.40000000000000002220e-01  1.00000000000000002082e-02  3.08606182112754721947e-02  6.23003311963493677794e-06
4.50000000000000011102e-01  1.00000000000000002082e-02  3.10285186350504928188e-02  4.47812434030067652024e-06
4.60000000000000019984e-01  1.00000000000000002082e-02  3.11657976570502391611e-02  2.72179619196372124534e-06
4.69999999999999973355e-01  1.00000000000000002082e-02  3.12723197994561261104e-02  9.62781960690828331195e-07
4.79999999999999982236e-01  1.00000000000000002082e-02  3.13479799377720178000e-02  7.97182420991804363553e-07
4.89999999999999991118e-01  1.00000000000000002082e-02  3.13927034045770325665e-02  2.55636007965437395129e-06
5.00000000000000000000e-01  1.00000000000000002082e-02  3.14064460632086650538e-02  4.31301491962687855164e-06
5.10000000000000008882e-01  1.00000000000000002082e-02  3.13891943513219043305e-02  6.06541333478261002199e-06
5.20000000000000017764e-01  1.00000000000000002082e-02  3.13409652942745059478e-02  7.81182591850365648511e-06
5.30000000000000026645e-01  1.00000000000000002082e-02  3.12618064883212476435e-02  9.55052917418763858137e-06
5.40000000000000035527e-01  1.00000000000000002082e-02  3.11517960536484110612e-02  1.12798072098609092340e-05
5.50000000000000044409e-01  1.00000000000000002082e-02  3.10110425572722274434e-02  1.29979534379612293726e-05
5.60000000000000053291e-01  1.00000000000000002082e-02  3.08396849059005724591e-02  1.47032722552647987513e-05
5.69999999999999951150e-01  1.00000000000000002082e-02  3.06378922088470645457e-02  1.63940807180150416311e-05
5.79999999999999960032e-01  1.00000000000000002082e-02  3.04058636111408306379e-02  1.80687102025178791820e-05
5.89999999999999968914e-01  1.00000000000000002082e-02  3.01438280969952114574e-02  1.97255080511028746404e-05
5.99999999999999977796e-01  1.00000000000000002082e-02  2.98520442638260941060e-02  2.13628392049698689892e-05
6.09999999999999986677e-01  1.00000000000000002082e-02  2.95308000670496499651e-02  2.29790878156152511558e-05
6.19999999999999995559e-01  1.00000000000000002082e-02  2.91804125359036506393e-02  2.45726588409614365993e-05
6.30000000000000004441e-01  1.00000000000000002082e-02  2.88012274605783553938e-02  2.61419796189904518613e-05
6.40000000000000013323e-01  1.00000000000000002082e-02  2.83936190509642347179e-02  2.76855014188504000572e-05
6.50000000000000022204e-01  1.00000000000000002082e-02  2.79579895673498259046e-02  2.92017009714852504576e-05
6.60000000000000031086e-01  1.00000000000000002082e-02  2.74947689234414961723e-02  3.06890819707535122962e-05
6.70000000000000039968e-01  1.00000000000000002082e-02  2.70044142620892192730e-02  3.21461765514508002184e-05
6.80000000000000048850e-01  1.00000000000000002082e-02  2.64874095041424048591e-02  3.35715467372384168687e-05
6.89999999999999946709e-01  1.00000000000000002082e-02  2.59442648708795922663e-02  3.49637858586687721996e-05
6.99999999999999955591e-01  1.00000000000000002082e-02  2.53755163804777993108e-02  3.63215199451483172766e-05
7.09999999999999964473e-01  1.00000000000000002082e-02  2.47817253190315035793e-02  3.76434090767902018726e-05
7.19999999999999973355e-01  1.00000000000000002082e-02  2.41634776866296134556e-02  3.89281487080776755771e-05
7.29999999999999982236e-01  1.00000000000000002082e-02  2.35213836190425878980e-02  4.01744709568989388782e-05
7.39999999999999991118e-01  1.00000000000000002082e-02  2.28560767855953243799e-02  4.13811458524968034389e-05
7.50000000000000000000e-01  1.00000000000000002082e-02  2.21682137638078043118e-02  4.25469825536192725046e-05
7.60000000000000008882e-01  1.00000000000000002082e-02  2.14584733914361738827e-02  4.36708305198395263513e-05
7.70000000000000017764e-01  1.00000000000000002082e-02  2.07275560965403740643e-02  4.47515806484763412065e-05
7.80000000000000026645e-01  1.00000000000000002082e-02  1.99761832062451058500e-02  4.57881663703078867211e-05
7.90000000000000035527e-01  1.00000000000000002082e-02  1.92050962348797524260e-02  4.67795646993396374569e-05
8.00000000000000044409e-01  1.00000000000000002082e-02  1.84150561521891284467e-02  4.77247972466045278228e-05
8.10000000000000053291e-01  1.00000000000000002082e-02  1.76068426323537710609e-02  4.86229311800513708253e-05
8.19999999999999951150e-01  1.00000000000000002082e-02  1.67812532845393082293e-02  4.94730801516088392056e-05
8.29999999999999960032e-01  1.00000000000000002082e-02  1.59391028657589646500e-02  5.02744051652931345231e-05
8.39999999999999968914e-01  1.00000000000000002082e-02  1.50812224768009216919e-02  5.10261154112005843597e-05
8.49999999999999977796e-01  1.00000000000000002082e-02  1.42084587420367291360e-02  5.17274690412430210307e-05
8.59999999999999986677e-01  1.00000000000000002082e-02  1.33216729739018893697e-02  5.23777739047572715725e-05
8.69999999999999995559e-01  1.00000000000000002082e-02  1.24217403228867057791e-02  5.29763882292314663980e-05
8.80000000000000004441e-01  1.00000000000000002082e-02  1.15095489138680624752e-02  5.35227212541088126496e-05
8.90000000000000013323e-01  1.00000000000000002082e-02  1.05859989696358326727e-02  5.40162338152488930021e-05
9.00000000000000022204e-01  1.00000000000000002082e-02  9.65200192248400444528e-03  5.44564388747972166760e-05
9.10000000000000031086e-01  1.00000000000000002082e-02  8.70847951473482755069e-03  5.48429020039414155674e-05
9.20000000000000039968e-01  1.00000000000000002082e-02  7.75636288909196773556e-03  5.51752418101961877861e-05
9.30000000000000048850e-01  1.00000000000000002082e-02  6.79659166971469542312e-03  5.54531303140776837823e-05
9.39999999999999946709e-01  1.00000000000000002082e-02  5.83011303492200500670e-03  5.56762932731706683409e-05
9.49999999999999955591e-01  1.00000000000000002082e-02  4.85788078244189444610e-03  5.58445104526838001502e-05
9.59999999999999964473e-01  1.00000000000000002082e-02  3.88085438812842522041e-03  5.59576158427267829343e-05
9.69999999999999973355e-01  1.00000000000000002082e-02  2.89999805907525292151e-03  5.60154978216133303537e-05
9.79999999999999982236e-01  1.00000000000000002082e-02  1.91627978205866729075e-03  5.60180992671111509240e-05
9.89999999999999991118e-01  1.00000000000000002082e-02  9.84391470944594778464e-04  2.24431491962248479133e-06
1.00000000000000000000e+00  1.00000000000000002082e-02  0.00000000000000000000e+00  3.84670855638184814762e-18
0.00000000000000000000e+00  2.00000000000000004163e-02  0.00000000000000000000e+00  0.00000000000000000000e+00
1.00000000000000002082e-02  2.00000000000000004163e-02  2.02777434769778721127e-03  5.54764663720152748083e-05
2.00000000000000004163e-02  2.00000000000000004163e-02  4.05133486816339292297e-03  1.08685525402308323650e-04
2.99999999999999988898e-02  2.00000000000000004163e-02  6.01725564499604008428e-03  1.08145759699125251774e-04
4.00000000000000008327e-02  2.00000000000000004163e-02  7.97723811697913925967e-03  1.07499267187697797321e-04
5.00000000000000027756e-02  2.00000000000000004163e-02  9.92934801804440901607e-03  1.06746685878102154366e-04
5.99999999999999977796e-02  2.00000000000000004163e-02  1.18716588514005804561e-02  1.05888758477227368227e-04
7.00000000000000066613e-02  2.00000000000000004163e-02  1.38022537907532116125e-02  1.04926331655883289806e-04
8.00000000000000016653e-02  2.00000000000000004163e-02  1.57192275719806040524e-02  1.03860355213048968781e-04
8.99999999999999966693e-02  2.00000000000000004163e-02  1.76206883733997995978e-02  1.02691881138834012477e-04
1.00000000000000005551e-01  2.00000000000000004163e-02  1.95047596827659652785e-02  1.01422062576111277066e-04
1.10000000000000000555e-01  2.00000000000000004163e-02  2.13695821491633429490e-02  1.00052152682380407489e-04
1.19999999999999995559e-01  2.00000000000000004163e-02  2.32133154179606226997e-02  9.85835033936038884761e-05
1.30000000000000004441e-01  2.00000000000000004163e-02  2.50341399470176036168e-02  9.70175640887978307791e-05
1.40000000000000013323e-01  2.00000000000000004163e-02  2.68302588023554833274e-02  9.53558801615704554333e-05
1.49999999999999994449e-01  2.00000000000000004163e-02  2.85998994315117445464e-02  9.36000914929964455968e-05
1.60000000000000003331e-01  2.00000000000000004163e-02  3.03413154128366543971e-02  9.17519308344279249656e-05
1.70000000000000012212e-01  2.00000000000000004163e-02  3.20527881790008059570e-02  8.98132220977856943200e-05
1.79999999999999993339e-01  2.00000000000000004163e-02  3.37326287130119348290e-02  8.77858785538546126936e-05
1.90000000000000002220e-01  2.00000000000000004163e-02  3.53791792150731990163e-02  8.56719009465628511535e-05
2.00000000000000011102e-01  2.00000000000000004163e-02  3.69908147386293004177e-02  8.34733755163755142270e-05
2.09999999999999992228e-01  2.00000000000000004163e-02  3.85659447939933897054e-02  8.11924719422568719196e-05
2.20000000000000001110e-01  2.00000000000000004163e-02  4.01030149179687767091e-02  7.88314412008342402238e-05
2.30000000000000009992e-01  2.00000000000000004163e-02  4.16005082079157484376e-02  7.63926133443351695895e-05
2.39999999999999991118e-01  2.00000000000000004163e-02  4.30569468187520024149e-02  7.38783952017318945593e-05
2.50000000000000000000e-01  2.00000000000000004163e-02  4.44708934214062337476e-02  7.12912680024060940731e-05
2.60000000000000008882e-01  2.00000000000000004163e-02  4.58409526212895518382e-02  6.86337849286483558942e-05
2.70000000000000017764e-01  2.00000000000000004163e-02  4.71657723353804889110e-02  6.59085685949731270306e-05
2.80000000000000026645e-01  2.00000000000000004163e-02  4.84440451265695792848e-02  6.31183084618056056136e-05
2.89999999999999980016e-01  2.00000000000000004163e-02  4.96745094939391867994e-02  6.02657581785515095163e-05
2.99999999999999988898e-01  2.00000000000000004163e-02  5.08559511177142584137e-02  5.73537328677140023636e-05
3.09999999999999997780e-01  2.00000000000000004163e-02  5.19872040576501368014e-02  5.43851063475389584490e-05
3.20000000000000006661e-01  2.00000000000000004163e-02  5.30671519036714708917e-02  5.13628082925432494221e-05
3.30000000000000015543e-01  2.00000000000000004163e-02  5.40947288776390949883e-02  4.82898213471916193384e-05
3.40000000000000024425e-01  2.00000000000000004163e-02  5.50689208851401490463e-02  4.51691781781574097643e-05
3.49999999999999977796e-01  2.00000000000000004163e-02  5.59887665162793063400e-02  4.20039584839715374187e-05
3.59999999999999986677e-01  2.00000000000000004163e-02  5.68533579944728931221e-02  3.87972859542326520277e-05
3.69999999999999995559e-01  2.00000000000000004163e-02  5.76618420723138472295e-02  3.55523251861430966692e-05
3.80000000000000004441e-01  2.00000000000000004163e-02  5.84134208736291557496e-02  3.22722785665516265219e-05
3.90000000000000013323e-01  2.00000000000000004163e-02  5.91073526808790564169e-02  2.89603831033768965852e-05
4.00000000000000022204e-01  2.00000000000000004163e-02  5.97429526671505103930e-02  2.56199072389273752037e-05
4.09999999999999975575e-01  2.00000000000000004163e-02  6.03195935719940956599e-02  2.22541476196935761322e-05
4.19999999999999984457e-01  2.00000000000000004163e-02  6.08367063204540842181e-02  1.88664258426937681001e-05
4.29999999999999993339e-01  2.00000000000000004163e-02  6.12937805846810596089e-02  1.54600851818773032953e-05
4.40000000000000002220e-01  2.00000000000000004163e-02  6.16903652875584879167e-02  1.20384872832196565540e-05
4.50000000000000011102e-01  2.00000000000000004163e-02  6.20260690478642226497e-02  8.60500885010301308498e-06
4.60000000000000019984e-01  2.00000000000000004163e-02  6.23005605665198358700e-02  5.16303831420844572264e-06
4.69999999999999973355e-01  2.00000000000000004163e-02  6.25135689535315369758e-02  1.71597248024846216197e-06
4.79999999999999982236e-01  2.00000000000000004163e-02  6.26648839953427155836e-02  1.73278680939970008978e-06
4.89999999999999991118e-01  2.00000000000000004163e-02  6.27543563622730560247e-02  5.17983604825245080860e-06
5.00000000000000000000e-01  2.00000000000000004163e-02  6.27818977558993740473e-02  8.62177341399983365733e-06
5.10000000000000008882e-01  2.00000000000000004163e-02  6.27474809961911100809e-02  1.20552021301983947055e-05
5.20000000000000017764e-01  2.00000000000000004163e-02  6.26511400483328595445e-02  1.54767338192557390997e-05
5.30000000000000026645e-01  2.00000000000000004163e-02  6.24929699892135606665e-02  1.88829918377278471731e-05
5.40000000000000035527e-01  2.00000000000000004163e-02  6.22731269135806675408e-02  2.22706146249529446379e-05
5.50000000000000044409e-01  2.00000000000000004163e-02  6.19918277800100281372e-02  2.56362590040845605976e-05
5.60000000000000053291e-01  2.00000000000000004163e-02  6.16493501967855031531e-02  2.89766034897651070246e-05
5.69999999999999951150e-01  2.00000000000000004163e-02  6.12460321479315061843e-02  3.22883515676830601393e-05
5.79999999999999960032e-01  2.00000000000000004163e-02  6.07822716596728568339e-02  3.55682349385405549569e-05
5.89999999999999968914e-01  2.00000000000000004163e-02  6.02585264076170301628e-02  3.88130167573788598112e-05
5.99999999999999977796e-01  2.00000000000000004163e-02  5.96753132650970422035e-02  4.20194948145477531476e-05
6.09999999999999986677e-01  2.00000000000000004163e-02  5.90332077930726395465e-02  4.51845047030399737942e-05
6.19999999999999995559e-01  2.00000000000000004163e-02  5.83328436721210139004e-02  4.83049229415902225959e-05
6.30000000000000004441e-01  2.00000000000000004163e-02  5.75749120770767605637e-02  5.13776700509505079850e-05
6.40000000000000013323e-01  2.00000000000000004163e-02  5.67601609949141758249e-02  5.43997136044777063191e-05
6.50000000000000022204e-01  2.00000000000000004163e-02  5.58893944865868977367e-02  5.73680712084440047605e-05
6.60000000000000031086e-01  2.00000000000000004163e-02  5.49634718935101337922e-02  6.02798134518439665541e-05