Titile = 'Poisson'  
VARIABLES = X, Y, U, Error, Rank 
zone N= 1936, E = 3600
DATAPACKING=POINT, ZONETYPE=FETRIANGLE
0.00000000000000000000e+00  5.00000000000000000000e-01  0.00000000000000000000e+00  0.00000000000000000000e+00 4
8.33333333333333321769e-03  5.00000000000000000000e-01  2.61744528983763741214e-02  2.49540949677495849102e-06 4
1.66666666666666664354e-02  5.00000000000000000000e-01  5.23309671341786949994e-02  4.98910876513269929688e-06 4
2.50000000000000013878e-02  5.00000000000000000000e-01  7.84516163390983484183e-02  7.47938874659515029464e-06 4
3.33333333333333328707e-02  5.00000000000000000000e-01  1.04518498724924011056e-01  9.96454272944591323835e-06 4
4.16666666666666643537e-02  5.00000000000000000000e-01  1.30513749352539870641e-01  1.24428675117027598418e-05 4
5.00000000000000027756e-02  5.00000000000000000000e-01  1.56419552375654358212e-01  1.49126645765107479491e-05 4
5.83333333333333342585e-02  5.00000000000000000000e-01  1.82218153250907455298e-01  1.73722412400156844825e-05 4
6.66666666666666657415e-02  5.00000000000000000000e-01  2.07891870905910020051e-01  1.98199118492947690129e-05 4
7.49999999999999972244e-02  5.00000000000000000000e-01  2.33423109857040261828e-01  2.22539988651293541011e-05 4
8.33333333333333287074e-02  5.00000000000000000000e-01  2.58794372268410843851e-01  2.46728341098956249766e-05 4
9.16666666666666601904e-02  5.00000000000000000000e-01  2.83988269944093318919e-01  2.70747598292708779866e-05 4
1.00000000000000005551e-01  5.00000000000000000000e-01  3.08987536245094340792e-01  2.94581298530549595682e-05 4
1.08333333333333337034e-01  5.00000000000000000000e-01  3.33775037923014050723e-01  3.18213107569076392167e-05 4
1.16666666666666668517e-01  5.00000000000000000000e-01  3.58333786862383874006e-01  3.41626829163943490641e-05 4
1.25000000000000000000e-01  5.00000000000000000000e-01  3.82646951723408901280e-01  3.64806416808804989671e-05 4
1.33333333333333331483e-01  5.00000000000000000000e-01  4.06697869477380458125e-01  3.87735984196946326108e-05 4
1.41666666666666662966e-01  5.00000000000000000000e-01  4.30470056826575075970e-01  4.10399817200035599285e-05 4
1.49999999999999994449e-01  5.00000000000000000000e-01  4.53947221501340092420e-01  4.32782382066565496359e-05 4
1.58333333333333325932e-01  5.00000000000000000000e-01  4.77113273425620321166e-01  4.54868339880842853518e-05 4
1.66666666666666657415e-01  5.00000000000000000000e-01  4.99952335744642151205e-01  4.76642553577932837072e-05 4
1.74999999999999988898e-01  5.00000000000000000000e-01  5.22448755705945511174e-01  4.98090100032877458602e-05 4
1.83333333333333320381e-01  5.00000000000000000000e-01  5.44587115386941600370e-01  5.19196280853728708848e-05 4
1.91666666666666679619e-01  5.00000000000000000000e-01  5.66352242261822236280e-01  5.39946630105925251542e-05 4
2.00000000000000011102e-01  5.00000000000000000000e-01  5.87729219599745555946e-01  5.60326927275811570439e-05 4
2.08333333333333342585e-01  5.00000000000000000000e-01  6.08703396688320408359e-01  5.80323204002475279140e-05 4
2.16666666666666674068e-01  5.00000000000000000000e-01  6.29260398874232018684e-01  5.99921756054833110738e-05 4
2.25000000000000005551e-01  5.00000000000000000000e-01  6.49386137414949327074e-01  6.19109152343311208710e-05 4
2.33333333333333337034e-01  5.00000000000000000000e-01  6.69066819134687906789e-01  6.37872241703307807370e-05 4
2.41666666666666668517e-01  5.00000000000000000000e-01  6.88288955877246033666e-01  6.56198165078780704107e-05 4
2.50000000000000000000e-01  5.00000000000000000000e-01  7.07039373750129596097e-01  6.74074364178656182389e-05 4
2.58333333333333359239e-01  5.00000000000000000000e-01  7.25305222153829087794e-01  6.91488584585453480713e-05 4
2.66666666666666662966e-01  5.00000000000000000000e-01  7.43073982587874048988e-01  7.08428895200841068913e-05 4
2.75000000000000022204e-01  5.00000000000000000000e-01  7.60333477231884491410e-01  7.24883681465504636776e-05 4
2.83333333333333325932e-01  5.00000000000000000000e-01  7.77071877289834178626e-01  7.40841671366121445885e-05 4
2.91666666666666685170e-01  5.00000000000000000000e-01  7.93277711098764992670e-01  7.56291924701724127544e-05 4
2.99999999999999988898e-01  5.00000000000000000000e-01  8.08939871989855729950e-01  7.71223850917213127332e-05 4
3.08333333333333348136e-01  5.00000000000000000000e-01  8.24047625899730018517e-01  7.85627222856799534156e-05 4
3.16666666666666651864e-01  5.00000000000000000000e-01  8.38590618729292303080e-01  7.99492161316361915624e-05 4
3.25000000000000011102e-01  5.00000000000000000000e-01  8.52558883437008807604e-01  8.12809170833705962878e-05 4
3.33333333333333314830e-01  5.00000000000000000000e-01  8.65942846872423732663e-01  8.25569120148639257195e-05 4
3.41666666666666674068e-01  5.00000000000000000000e-01  8.78733336335544734652e-01  8.37763264206481395036e-05 4
3.49999999999999977796e-01  5.00000000000000000000e-01  8.90921585863306719766e-01  8.49383250610680207160e-05 4
3.58333333333333337034e-01  5.00000000000000000000e-01  9.02499242238934407112e-01  8.60421109261100269805e-05 4
3.66666666666666640761e-01  5.00000000000000000000e-01  9.13458370714747447394e-01  8.70869278534192048369e-05 4
3.75000000000000000000e-01  5.00000000000000000000e-01  9.23791460451323431791e-01  8.80720599633066925094e-05 4
3.83333333333333359239e-01  5.00000000000000000000e-01  9.33491429665623706491e-01  8.89968315780365060164e-05 4
3.91666666666666662966e-01  5.00000000000000000000e-01  9.42551630482601043859e-01  8.98606095773857305176e-05 4
4.00000000000000022204e-01  5.00000000000000000000e-01  9.50965853493857427026e-01  9.06628012961041562789e-05 4
4.08333333333333325932e-01  5.00000000000000000000e-01  9.58728332010904127358e-01  9.14028572889247215016e-05 4
4.16666666666666685170e-01  5.00000000000000000000e-01  9.65833746018519123666e-01  9.20802705491885475908e-05 4
4.24999999999999988898e-01  5.00000000000000000000e-01  9.72277225821401969164e-01  9.26945762745878809596e-05 4
4.33333333333333348136e-01  5.00000000000000000000e-01  9.78054355379654682956e-01  9.32453541510058769859e-05 4
4.41666666666666651864e-01  5.00000000000000000000e-01  9.83161175338022386150e-01  9.37322259321193840265e-05 4
4.50000000000000011102e-01  5.00000000000000000000e-01  9.87594185736644258888e-01  9.41548584935114618588e-05 4
4.58333333333333314830e-01  5.00000000000000000000e-01  9.91350348411669135551e-01  9.45129621412466036645e-05 4
4.66666666666666674068e-01  5.00000000000000000000e-01  9.94427089077136727724e-01  9.48062911365621374671e-05 4
4.74999999999999977796e-01  5.00000000000000000000e-01  9.96822299088395813449e-01  9.50346447321503973171e-05 4
4.83333333333333337034e-01  5.00000000000000000000e-01  9.98534336888343032612e-01  9.51978662308006207127e-05 4
4.91666666666666640761e-01  5.00000000000000000000e-01  9.99562029131594753650e-01  9.52958439625062325717e-05 4
5.00000000000000000000e-01  5.00000000000000000000e-01  9.99904671489347918190e-01  9.53285106520818104059e-05 4
5.08333333333333303727e-01  5.00000000000000000000e-01  9.99562029131355611611e-01  9.52958442016482720760e-05 4
5.16666666666666718477e-01  5.00000000000000000000e-01  9.98534336888443396774e-01  9.51978661304364592866e-05 4
5.25000000000000022204e-01  5.00000000000000000000e-01  9.96822299088292451685e-01  9.50346448355121609097e-05 4
5.33333333333333325932e-01  5.00000000000000000000e-01  9.94427089077148829155e-01  9.48062911245717288011e-05 4
5.41666666666666629659e-01  5.00000000000000000000e-01  9.91350348411766724155e-01  9.45129620437690221024e-05 4
5.50000000000000044409e-01  5.00000000000000000000e-01  9.87594185736502483408e-01  9.41548586351759198010e-05 4
5.58333333333333348136e-01  5.00000000000000000000e-01  9.83161175338090109754e-01  9.37322258645068018268e-05 4
5.66666666666666651864e-01  5.00000000000000000000e-01  9.78054355379773809887e-01  9.32453540318789464436e-05 4
5.74999999999999955591e-01  5.00000000000000000000e-01  9.72277225821320367771e-01  9.26945763563002955721e-05 4
5.83333333333333370341e-01  5.00000000000000000000e-01  9.65833746018614935913e-01  9.20802704533763005657e-05 4
5.91666666666666674068e-01  5.00000000000000000000e-01  9.58728332010741479685e-01  9.14028574515723946092e-05 4
5.99999999999999977796e-01  5.00000000000000000000e-01  9.50965853493953683362e-01  9.06628011999588423464e-05 4
6.08333333333333281523e-01  5.00000000000000000000e-01  9.42551630482687308188e-01  8.98606094911214015042e-05 4
6.16666666666666696273e-01  5.00000000000000000000e-01  9.33491429665511240898e-01  8.89968316905020984109e-05 4
6.25000000000000000000e-01  5.00000000000000000000e-01  9.23791460451389045971e-01  8.80720598976925117540e-05 4
6.33333333333333303727e-01  5.00000000000000000000e-01  9.13458370714558265391e-01  8.70869280427122305355e-05 4
6.41666666666666718477e-01  5.00000000000000000000e-01  9.02499242238990695419e-01  8.60421108698217196320e-05 4
6.50000000000000022204e-01  5.00000000000000000000e-01  8.90921585863357790025e-01  8.49383250101087838857e-05 4
6.58333333333333325932e-01  5.00000000000000000000e-01  8.78733336335411507889e-01  8.37763265538749024586e-05 4
6.66666666666666629659e-01  5.00000000000000000000e-01  8.65942846872452820506e-01  8.25569119858871047768e-05 4
6.75000000000000044409e-01  5.00000000000000000000e-01  8.52558883437054881860e-01  8.12809170374073630683e-05 4
6.83333333333333348136e-01  5.00000000000000000000e-01  8.38590618729266545905e-01  7.99492161573933657337e-05 4
6.91666666666666651864e-01  5.00000000000000000000e-01  8.24047625899776203795e-01  7.85627222396056978937e-05 4
6.99999999999999955591e-01  5.00000000000000000000e-01  8.08939871989707293132e-01  7.71223852401581311256e-05 4
7.08333333333333370341e-01  5.00000000000000000000e-01  7.93277711098868687500e-01  7.56291923664775822544e-05 4
7.16666666666666674068e-01  5.00000000000000000000e-01  7.77071877289754686657e-01  7.40841672163261577566e-05 4
7.24999999999999977796e-01  5.00000000000000000000e-01  7.60333477231937449048e-01  7.24883680935928254030e-05 4
7.33333333333333281523e-01  5.00000000000000000000e-01  7.43073982587941883615e-01  7.08428894525825469941e-05 4
7.41666666666666696273e-01  5.00000000000000000000e-01  7.25305222153846407274e-01  6.91488584411148465847e-05 4
7.50000000000000000000e-01  5.00000000000000000000e-01  7.07039373750204758196e-01  6.74074363428145417743e-05 4
7.58333333333333303727e-01  5.00000000000000000000e-01  6.88288955877106034542e-01  6.56198166482102607233e-05 4
7.66666666666666718477e-01  5.00000000000000000000e-01  6.69066819134795487400e-01  6.37872240625281250459e-05 4
7.75000000000000022204e-01  5.00000000000000000000e-01  6.49386137414943775958e-01  6.19109152399932582966e-05 4
7.83333333333333325932e-01  5.00000000000000000000e-01  6.29260398874236570599e-01  5.99921756008203743704e-05 4
7.91666666666666629659e-01  5.00000000000000000000e-01  6.08703396688321074492e-01  5.80323203998034387041e-05 4
8.00000000000000044409e-01  5.00000000000000000000e-01  5.87729219599652741302e-01  5.60326928205068242050e-05 4
8.08333333333333348136e-01  5.00000000000000000000e-01  5.66352242261898508602e-01  5.39946629343202033624e-05 4
8.16666666666666651864e-01  5.00000000000000000000e-01  5.44587115386925946225e-01  5.19196281013600824394e-05 4
8.24999999999999955591e-01  5.00000000000000000000e-01  5.22448755705949618999e-01  4.98090099992909429716e-05 4
8.33333333333333370341e-01  5.00000000000000000000e-01  4.99952335744639930759e-01  4.76642553600137297565e-05 4
8.41666666666666674068e-01  5.00000000000000000000e-01  4.77113273425534445416e-01  4.54868340741820809114e-05 4
8.49999999999999977796e-01  5.00000000000000000000e-01  4.53947221501450282055e-01  4.32782380965779367443e-05 4
8.58333333333333281523e-01  5.00000000000000000000e-01  4.30470056826572577968e-01  4.10399817229456509438e-05 4
8.66666666666666696273e-01  5.00000000000000000000e-01  4.06697869477374129854e-01  3.87735984259118815487e-05 4
8.75000000000000000000e-01  5.00000000000000000000e-01  3.82646951723401518297e-01  3.64806416883745043833e-05 4
8.83333333333333303727e-01  5.00000000000000000000e-01  3.58333786862313707910e-01  3.41626829869490222791e-05 4
8.91666666666666718477e-01  5.00000000000000000000e-01  3.33775037923096595804e-01  3.18213106741405127309e-05 4
9.00000000000000022204e-01  5.00000000000000000000e-01  3.08987536245070637531e-01  2.94581298768692434464e-05 4
9.08333333333333325932e-01  5.00000000000000000000e-01  2.83988269944094984254e-01  2.70747598276055434496e-05 4
9.16666666666666629659e-01  5.00000000000000000000e-01  2.58794372268397576686e-01  2.46728341234403458770e-05 4
9.25000000000000044409e-01  5.00000000000000000000e-01  2.33423109857017557767e-01  2.22539988879721928328e-05 4
9.33333333333333348136e-01  5.00000000000000000000e-01  2.07891870905932418800e-01  1.98199118268960194911e-05 4
9.41666666666666651864e-01  5.00000000000000000000e-01  1.82218153250916253816e-01  1.73722412314669671929e-05 4
9.49999999999999955591e-01  5.00000000000000000000e-01  1.56419552375652665122e-01  1.49126645783148603641e-05 4
9.58333333333333370341e-01  5.00000000000000000000e-01  1.30513749352545810334e-01  1.24428675057630666601e-05 4
9.66666666666666674068e-01  5.00000000000000000000e-01  1.04518498724916752973e-01  9.96454273698155201799e-06 4
9.74999999999999977796e-01  5.00000000000000000000e-01  7.84516163390998333416e-02  7.47938874523512708947e-06 4
9.83333333333333281523e-01  5.00000000000000000000e-01  5.23309671341840171310e-02  4.98910876023384020073e-06 4
9.91666666666666696273e-01  5.00000000000000000000e-01  2.61744528983741189809e-02  2.49540949886009610914e-06 4
1.00000000000000000000e+00  5.00000000000000000000e-01  0.00000000000000000000e+00  1.22464679914735320717e-16 4
0.00000000000000000000e+00  5.08333333333333303727e-01  0.00000000000000000000e+00  0.00000000000000000000e+00 4
8.33333333333333321769e-03  5.08333333333333303727e-01  2.61644711016829484285e-02  3.50701978896542088115e-06 4
1.66666666666666664354e-02  5.08333333333333303727e-01  5.23110439003041036155e-02  6.97811755493576990617e-06 4
2.50000000000000013878e-02  5.08333333333333303727e-01  7.84227456243072607034e-02  9.46413099138510016672e-06 4
3.33333333333333328707e-02  5.08333333333333303727e-01  1.04480700315761315666e-01  1.19436581869358793284e-05 4
4.16666666666666643537e-02  5.08333333333333303727e-01  1.30467049154147612944e-01  1.44149997945430818902e-05 4
5.00000000000000027756e-02  5.08333333333333303727e-01  1.56363982394017192457e-01  1.68764620823158573160e-05 4
5.83333333333333342585e-02  5.08333333333333303727e-01  1.82153751570912236790e-01  1.93263580828828551716e-05 4
6.66666666666666657415e-02  5.08333333333333303727e-01  2.07818681665261212332e-01  2.17630087651909942537e-05 4
7.49999999999999972244e-02  5.08333333333333303727e-01  2.33341183215965808362e-01  2.41847441742049085178e-05 4
8.33333333333333287074e-02  5.08333333333333303727e-01  2.58703764375357470051e-01  2.65899045565065605956e-05 4
9.16666666666666601904e-02  5.08333333333333303727e-01  2.83889042897181087532e-01  2.89768415529523259977e-05 4
1.00000000000000005551e-01  5.08333333333333303727e-01  3.08879758049572405998e-01  3.13439192743403260977e-05 4
1.08333333333333337034e-01  5.08333333333333303727e-01  3.33658782444701262904e-01  3.36895154225969051254e-05 4
1.16666666666666668517e-01  5.08333333333333303727e-01  3.58209133776943966510e-01  3.60120224863758053857e-05 4
1.25000000000000000000e-01  5.08333333333333303727e-01  3.82513986461883503942e-01  3.83098486667621251911e-05 4
1.33333333333333331483e-01  5.08333333333333303727e-01  4.06556683167435872761e-01  4.05814192565023823533e-05 4
1.41666666666666662966e-01  5.08333333333333303727e-01  4.30320746230393458287e-01  4.28251772799925767288e-05 4
1.49999999999999994449e-01  5.08333333333333303727e-01  4.53789888948791020340e-01  4.50395851607221509028e-05 4
1.58333333333333325932e-01  5.08333333333333303727e-01  4.76948026744694220103e-01  4.72231250791543821776e-05 4
1.66666666666666657415e-01  5.08333333333333303727e-01  4.99779288187081949246e-01  4.93743006966251840595e-05 4
1.74999999999999988898e-01  5.08333333333333303727e-01  5.22268025869955687668e-01  5.14916375577989526846e-05 4
1.83333333333333320381e-01  5.08333333333333303727e-01  5.44398827135686658174e-01  5.35736847040446662049e-05 4
1.91666666666666679619e-01  5.08333333333333303727e-01  5.66156524638695257678e-01  5.56190150547974937467e-05 4
2.00000000000000011102e-01  5.08333333333333303727e-01  5.87526206739821033054e-01  5.76262269557092920991e-05 4
2.08333333333333342585e-01  5.08333333333333303727e-01  6.08493227726471963557e-01  5.95939446833559927086e-05 4
2.16666666666666674068e-01  5.08333333333333303727e-01  6.29043217849689195731e-01  6.15208197629613096069e-05 4
2.25000000000000005551e-01  5.08333333333333303727e-01  6.49162093172919951733e-01  6.34055314279180493031e-05 4
2.33333333333333337034e-01  5.08333333333333303727e-01  6.68836065223730846796e-01  6.52467882379381691749e-05 4
2.41666666666666668517e-01  5.08333333333333303727e-01  6.88051650444629459002e-01  6.70433280732796177404e-05 4
2.50000000000000000000e-01  5.08333333333333303727e-01  7.06795679433240620071e-01  6.87939197800968571528e-05 4
2.58333333333333359239e-01  5.08333333333333303727e-01  7.25055305968401953010e-01  7.04973635688999067384e-05 4
2.66666666666666662966e-01  5.08333333333333303727e-01  7.42818015814154963827e-01  7.21524920042071471471e-05 4
2.75000000000000022204e-01  5.08333333333333303727e-01  7.60071635296379000124e-01  7.37581708036838534781e-05 4
2.83333333333333325932e-01  5.08333333333333303727e-01  7.76804339646362640437e-01  7.53132992703520187661e-05 4
2.91666666666666685170e-01  5.08333333333333303727e-01  7.93004661104155017526e-01  7.68168118041590020084e-05 4
2.99999999999999988898e-01  5.08333333333333303727e-01  8.08661496778528054996e-01  7.82676780973767804994e-05 4
3.08333333333333348136e-01  5.08333333333333303727e-01  8.23764116256818779149e-01  7.96649033669716288841e-05 4
3.16666666666666651864e-01  5.08333333333333303727e-01  8.38302168957496762758e-01  8.10075305570645554099e-05 4
3.25000000000000011102e-01  5.08333333333333303727e-01  8.52265691225941535158e-01  8.22946389897882824016e-05 4
3.33333333333333314830e-01  5.08333333333333303727e-01  8.65645113160994239543e-01  8.35253470344854420659e-05 4
3.41666666666666674068e-01  5.08333333333333303727e-01  8.78431265175590225702e-01  8.46988108129664851731e-05 4
3.49999999999999977796e-01  5.08333333333333303727e-01  8.90615384279686228552e-01  8.58142262266659017200e-05 4
3.58333333333333337034e-01  5.08333333333333303727e-01  9.02189120086544171784e-01  8.68708289400998978635e-05 4
3.66666666666666640761e-01  5.08333333333333303727e-01  9.13144540535842375029e-01  8.78678947312527824920e-05 4
3.75000000000000000000e-01  5.08333333333333303727e-01  9.23474137329648003814e-01  8.88047402533009844205e-05 4
3.83333333333333359239e-01  5.08333333333333303727e-01  9.33170831078256157731e-01  8.96807234763707938896e-05 4
3.91666666666666662966e-01  5.08333333333333303727e-01  9.42227976152317459047e-01  9.04952438601780428939e-05 4
4.00000000000000022204e-01  5.08333333333333303727e-01  9.50639365236744859899e-01  9.12477434408254239884e-05 4
4.08333333333333325932e-01  5.08333333333333303727e-01  9.58399233585731424867e-01  9.19377063794968307775e-05 4
4.16666666666666685170e-01  5.08333333333333303727e-01  9.65502262973130687129e-01  9.25646598041174328841e-05 4
4.24999999999999988898e-01  5.08333333333333303727e-01  9.71943585337366133814e-01  9.31281740708111982485e-05 4
4.33333333333333348136e-01  5.08333333333333303727e-01  9.77718786118101146343e-01  9.36278627144959685324e-05 4
4.41666666666666651864e-01  5.08333333333333303727e-01  9.82823907280592212743e-01  9.40633838794058263488e-05 4
4.50000000000000011102e-01  5.08333333333333303727e-01  9.87255450030566805708e-01  9.44344383156936473256e-05 4
4.58333333333333314830e-01  5.08333333333333303727e-01  9.91010377209374460072e-01  9.47407723310700333741e-05 4
4.66666666666666674068e-01  5.08333333333333303727e-01  9.94086115377779910851e-01  9.49821756892621493762e-05 4
4.74999999999999977796e-01  5.08333333333333303727e-01  9.96480556578417497882e-01  9.51584830061191766504e-05 4
4.83333333333333337034e-01  5.08333333333333303727e-01  9.98192059780791063339e-01  9.52695735515485253586e-05 4
4.91666666666666640761e-01  5.08333333333333303727e-01  9.99219452006422814705e-01  9.53153708640464003565e-05 4
5.00000000000000000000e-01  5.08333333333333303727e-01  9.99562029131355722633e-01  9.52958442015372497735e-05 4
5.08333333333333303727e-01  5.08333333333333303727e-01  9.99219556371440997822e-01  9.52110058458632835254e-05 4
5.16666666666666718477e-01  5.08333333333333303727e-01  9.98192268438838015143e-01  9.50609155045967213482e-05 4
5.25000000000000022204e-01  5.08333333333333303727e-01  9.96480869387273537896e-01  9.48456741500791622457e-05 4
5.33333333333333325932e-01  5.08333333333333303727e-01  9.94086532122317900750e-01  9.45654311513832723790e-05 4
5.41666666666666629659e-01  5.08333333333333303727e-01  9.91010897604369001002e-01  9.42203773366401264866e-05 4
5.50000000000000044409e-01  5.08333333333333303727e-01  9.87256073719354865226e-01  9.38107495275231073606e-05 4
5.58333333333333348136e-01  5.08333333333333303727e-01  9.82824633835511662916e-01  9.33368289600666756201e-05 4
5.66666666666666651864e-01  5.08333333333333303727e-01  9.77719615041277911871e-01  9.27989395377304404633e-05 4
5.74999999999999955591e-01  5.08333333333333303727e-01  9.71944516061005292507e-01  9.21974504317635279449e-05 4
5.83333333333333370341e-01  5.08333333333333303727e-01  9.65503294858952254565e-01  9.15327739825499975268e-05 4
5.91666666666666674068e-01  5.08333333333333303727e-01  9.58400365926874053812e-01  9.08053652368678854145e-05 4
5.99999999999999977796e-01  5.08333333333333303727e-01  9.50640597256663832937e-01  9.00157235219634088708e-05 4
6.08333333333333281523e-01  5.08333333333333303727e-01  9.42229307007092953263e-01  8.91643890846838260700e-05 4
6.16666666666666696273e-01  5.08333333333333303727e-01  9.33172259855824859365e-01  8.82519459076691603627e-05 4
6.25000000000000000000e-01  5.08333333333333303727e-01  9.23475663050475348292e-01  8.72790194259565055290e-05 4
6.33333333333333303727e-01  5.08333333333333303727e-01  9.13146162154600427030e-01  8.62462759733118033978e-05 4
6.41666666666666718477e-01  5.08333333333333303727e-01  9.02190836491502667904e-01  8.51544239816037773494e-05 4
6.50000000000000022204e-01  5.08333333333333303727e-01  8.90617194294696767898e-01  8.40042112162375786966e-05 4
6.58333333333333325932e-01  5.08333333333333303727e-01  8.78433167560281114028e-01  8.27964261220781594375e-05 4
6.66666666666666629659e-01  5.08333333333333303727e-01  8.65647106611493466488e-01  8.15318965353695190856e-05 4
6.75000000000000044409e-01  5.08333333333333303727e-01  8.52267774375701558931e-01  8.02114892298755322031e-05 4
6.83333333333333348136e-01  5.08333333333333303727e-01  8.38304340379400492189e-01  7.88361086533351240746e-05 4
6.91666666666666651864e-01  5.08333333333333303727e-01  8.23766374462132078271e-01  7.74066980537835291898e-05 4
6.99999999999999955591e-01  5.08333333333333303727e-01  8.08663840220102403400e-01  7.59242365230283766664e-05 4
7.08333333333333370341e-01  5.08333333333333303727e-01  7.93007088175551877463e-01  7.43897404072990653390e-05 4
7.16666666666666674068e-01  5.08333333333333303727e-01  7.76806848684253314907e-01  7.28042613798995930097e-05 4
7.24999999999999977796e-01  5.08333333333333303727e-01  7.60074224581421598046e-01  7.11688857610859315628e-05 4
7.33333333333333281523e-01  5.08333333333333303727e-01  7.42820683571487117014e-01  6.94847346723870273877e-05 4
7.41666666666666696273e-01  5.08333333333333303727e-01  7.25058050369695616943e-01  6.77529622751249505086e-05 4
7.50000000000000000000e-01  5.08333333333333303727e-01  7.06798498597915214603e-01  6.59747551056133474390e-05 4
7.58333333333333303727e-01  5.08333333333333303727e-01  6.88054542440167726802e-01  6.41513325353448848887e-05 4
7.66666666666666718477e-01  5.08333333333333303727e-01  6.68839028068466179278e-01  6.22839435023836429650e-05 4
7.75000000000000022204e-01  5.08333333333333303727e-01  6.49165124836025286825e-01  6.03738683226939798487e-05 4
7.83333333333333325932e-01  5.08333333333333303727e-01  6.29046316253491277770e-01  5.84224159607682480555e-05 4
7.91666666666666629659e-01  5.08333333333333303727e-01  6.08496390747602866611e-01  5.64309235526749830569e-05 4
8.00000000000000044409e-01  5.08333333333333303727e-01  5.87529432210223800936e-01  5.44007565530524317410e-05 4
8.08333333333333348136e-01  5.08333333333333303727e-01  5.66159810348049852280e-01  5.23333057002028922966e-05 4
8.16666666666666651864e-01  5.08333333333333303727e-01  5.44402170832048004634e-01  5.02299883430312732457e-05 4
8.24999999999999955591e-01  5.08333333333333303727e-01  5.22271425261607968871e-01  4.80922459056287721069e-05 4
8.33333333333333370341e-01  5.08333333333333303727e-01  4.99782740944529790816e-01  4.59215432487836139330e-05 4
8.41666666666666674068e-01  5.08333333333333303727e-01  4.76951530501292575437e-01  4.37193684810210925207e-05 4
8.49999999999999977796e-01  5.08333333333333303727e-01  4.53793441303319000646e-01  4.14872306328528672736e-05 4
8.58333333333333281523e-01  5.08333333333333303727e-01  4.30324344748392484394e-01  3.92266592814105585774e-05 4
8.66666666666666696273e-01  5.08333333333333303727e-01  4.06560325382475717948e-01  3.69392042165461731429e-05 4
8.75000000000000000000e-01  5.08333333333333303727e-01  3.82517669877941779433e-01  3.46264326085976570369e-05 4
8.83333333333333303727e-01  5.08333333333333303727e-01  3.58212855869510182760e-01  3.22899299205481327135e-05 4
8.91666666666666718477e-01  5.08333333333333303727e-01  3.33662540662716389228e-01  2.99312974072485360466e-05 4
9.00000000000000022204e-01  5.08333333333333303727e-01  3.08883549817575653318e-01  2.75521512712040284043e-05 4
9.08333333333333325932e-01  5.08333333333333303727e-01  2.83892865616267753293e-01  2.51541224662865658956e-05 4
9.16666666666666629659e-01  5.08333333333333303727e-01  2.58707615425811443544e-01  2.27388541028106239139e-05 4
9.25000000000000044409e-01  5.08333333333333303727e-01  2.33345059958374928533e-01  2.03080017652235156334e-05 4
9.33333333333333348136e-01  5.08333333333333303727e-01  2.07822581442657139394e-01  1.78632313692639321800e-05 4
9.41666666666666651864e-01  5.08333333333333303727e-01  1.82157671710683505273e-01  1.54062183118641726765e-05 4
9.49999999999999955591e-01  5.08333333333333303727e-01  1.56367920209412120114e-01  1.29386466874992223097e-05 4
9.58333333333333370341e-01  5.08333333333333303727e-01  1.30471001946437153984e-01  1.04622075050020413300e-05 4
9.66666666666666674068e-01  5.08333333333333303727e-01  1.04484665375880997340e-01  7.97859806753176137306e-06 4
9.74999999999999977796e-01  5.08333333333333303727e-01  7.84267202347823516595e-02  5.48952051641904414936e-06 4
9.83333333333333281523e-01  5.08333333333333303727e-01  5.23150253371770374011e-02  2.99668068242525675871e-06 4
9.91666666666666696273e-01  5.08333333333333303727e-01  2.61664960324899664723e-02  1.48208898177737413704e-06 4
1.00000000000000000000e+00  5.08333333333333303727e-01  0.00000000000000000000e+00  1.22422714327552165935e-16 4
0.00000000000000000000e+00  5.16666666666666718477e-01  0.00000000000000000000e+00  0.00000000000000000000e+00 4
8.33333333333333321769e-03  5.16666666666666718477e-01  2.61365574834405769988e-02  4.51622654531330658401e-06 4
1.66666666666666664354e-02  5.16666666666666718477e-01  5.22552692899356172052e-02  8.96234389111127960348e-06 4
2.50000000000000013878e-02  5.16666666666666718477e-01  7.83401278769664255464e-02  1.14423869959356938608e-05 4
3.33333333333333328707e-02  5.16666666666666718477e-01  1.04371296053529821757e-01  1.39145880575092251163e-05 4
4.16666666666666643537e-02  5.16666666666666718477e-01  1.30330933357238942794e-01  1.63772527572436654708e-05 4
5.00000000000000027756e-02  5.16666666666666718477e-01  1.56201248349400245718e-01  1.88286933061609929041e-05 4
5.83333333333333342585e-02  5.16666666666666718477e-01  1.81964510808368062911e-01  2.12672296104332581024e-05 4
6.66666666666666657415e-02  5.16666666666666718477e-01  2.07603063880960725385e-01  2.36911904150649554879e-05 4
7.49999999999999972244e-02  5.16666666666666718477e-01  2.33099336183576921755e-01  2.60989144580947574070e-05 4
8.33333333333333287074e-02  5.16666666666666718477e-01  2.58435853844731056039e-01  2.84887516223131243009e-05 4
9.16666666666666601904e-02  5.16666666666666718477e-01  2.83595252480834059128e-01  3.08590640040740105121e-05 4
1.00000000000000005551e-01  5.16666666666666718477e-01  3.08560289096790174579e-01  3.32082271203293366568e-05 4
1.08333333333333337034e-01  5.16666666666666718477e-01  3.33313853903498880094e-01  3.55346310073056947942e-05 4
1.16666666666666668517e-01  5.16666666666666718477e-01  3.57838982044182796205e-01  3.78366811910058054025e-05 4
1.25000000000000000000e-01  5.16666666666666718477e-01  3.82118865220976933195e-01  4.01128000561135067414e-05 4
1.33333333333333331483e-01  5.16666666666666718477e-01  4.06136863214887733342e-01  4.23614275357198089011e-05 4
1.41666666666666662966e-01  5.16666666666666718477e-01  4.29876515289656091490e-01  4.45810226929466146828e-05 4
1.49999999999999994449e-01  5.16666666666666718477e-01  4.53321551473709949409e-01  4.67700641900714586541e-05 4
1.58333333333333325932e-01  5.16666666666666718477e-01  4.76455903710280348484e-01  4.89270518416184962973e-05 4
1.66666666666666657415e-01  5.16666666666666718477e-01  4.99263716869966900358e-01  5.10505073199607473100e-05 4
1.74999999999999988898e-01  5.16666666666666718477e-01  5.21729359616843191283e-01  5.31389753773980899609e-05 4