Titile = 'Poisson'  
VARIABLES = X, Y, U, Error, Rank 
zone N= 1936, E = 3600
DATAPACKING=POINT, ZONETYPE=FETRIANGLE
0.00000000000000000000e+00  1.25000000000000000000e-01  0.00000000000000000000e+00  0.00000000000000000000e+00 1
8.33333333333333321769e-03  1.25000000000000000000e-01  1.00522630550510406328e-02  3.47786277506145768967e-05 1
1.66666666666666664354e-02  1.25000000000000000000e-01  2.00964538020302931065e-02  6.83504308713993313784e-05 1
2.50000000000000013878e-02  1.25000000000000000000e-01  3.00922730315856118422e-02  6.72769781927574916924e-05 1
3.33333333333333328707e-02  1.25000000000000000000e-01  4.00674685203478500584e-02  6.61574172340154142979e-05 1
4.16666666666666643537e-02  1.25000000000000000000e-01  5.00152037676006439026e-02  6.49925152858277233037e-05 1
5.00000000000000027756e-02  1.25000000000000000000e-01  5.99286610925065313382e-02  6.37830707143419162186e-05 1
5.83333333333333342585e-02  1.25000000000000000000e-01  6.98010463066030956147e-02  6.25299124122902227896e-05 1
6.66666666666666657415e-02  1.25000000000000000000e-01  7.96255933702003093622e-02  6.12338992308503193840e-05 1
7.49999999999999972244e-02  1.25000000000000000000e-01  8.93955690294903487780e-02  5.98959193952031121455e-05 1
8.33333333333333287074e-02  1.25000000000000000000e-01  9.91042774311747531879e-02  5.85168898871307741061e-05 1
9.16666666666666601904e-02  1.25000000000000000000e-01  1.08745064711477212871e-01  5.70977558259910811245e-05 1
1.00000000000000005551e-01  1.25000000000000000000e-01  1.18311323556362910092e-01  5.56394898143935945356e-05 1
1.08333333333333337034e-01  1.25000000000000000000e-01  1.27796497729866703752e-01  5.41430912768814387448e-05 1
1.16666666666666668517e-01  1.25000000000000000000e-01  1.37194086567403783494e-01  5.26095857689701240645e-05 1
1.25000000000000000000e-01  1.25000000000000000000e-01  1.46497649431004739462e-01  5.10400242784980751054e-05 1
1.33333333333333331483e-01  1.25000000000000000000e-01  1.55700810123405419816e-01  4.94354825038012535288e-05 1
1.41666666666666662966e-01  1.25000000000000000000e-01  1.64797261257976696003e-01  4.77970601188981714103e-05 1
1.49999999999999994449e-01  1.25000000000000000000e-01  1.73780768581492411906e-01  4.61258800202590801831e-05 1
1.58333333333333325932e-01  1.25000000000000000000e-01  1.82645175246762853094e-01  4.44230875449036499703e-05 1
1.66666666666666657415e-01  1.25000000000000000000e-01  1.91384406032247517127e-01  4.26898497026539924804e-05 1
1.74999999999999988898e-01  1.25000000000000000000e-01  1.99992471505703595103e-01  4.09273543713062348814e-05 1
1.83333333333333320381e-01  1.25000000000000000000e-01  2.08463472129037069580e-01  3.91368094762312157542e-05 1
1.91666666666666679619e-01  1.25000000000000000000e-01  2.16791602301556224353e-01  3.73194421669498233030e-05 1
2.00000000000000011102e-01  1.25000000000000000000e-01  2.24971154338838130737e-01  3.54764979742516750605e-05 1
2.08333333333333342585e-01  1.25000000000000000000e-01  2.32996522384495113878e-01  3.36092399609577707764e-05 1
2.16666666666666674068e-01  1.25000000000000000000e-01  2.40862206252152044605e-01  3.17189478596935359178e-05 1
2.25000000000000005551e-01  1.25000000000000000000e-01  2.48562815194973446564e-01  2.98069171700554580440e-05 1
2.33333333333333337034e-01  1.25000000000000000000e-01  2.56093071600254296172e-01  2.78744583126488976177e-05 1
2.41666666666666668517e-01  1.25000000000000000000e-01  2.63447814606387442637e-01  2.59228956867030291278e-05 1
2.50000000000000000000e-01  1.25000000000000000000e-01  2.70622003639914121553e-01  2.39535668156709569132e-05 1
2.58333333333333359239e-01  1.25000000000000000000e-01  2.77610721869999910183e-01  2.19678213496110608105e-05 1
2.66666666666666662966e-01  1.25000000000000000000e-01  2.84409179578299420310e-01  1.99670202545854102993e-05 1
2.75000000000000022204e-01  1.25000000000000000000e-01  2.91012717441449131339e-01  1.79525347388520550851e-05 1
2.83333333333333325932e-01  1.25000000000000000000e-01  2.97416809724493969025e-01  1.59257454726002833922e-05 1
2.91666666666666685170e-01  1.25000000000000000000e-01  3.03617067382440986023e-01  1.38880414820574671353e-05 1
2.99999999999999988898e-01  1.25000000000000000000e-01  3.09609241068423801657e-01  1.18408193303665143503e-05 1
3.08333333333333348136e-01  1.25000000000000000000e-01  3.15389224045911020777e-01  9.78548207863916275073e-06 1
3.16666666666666651864e-01  1.25000000000000000000e-01  3.20953055003264653422e-01  7.72343833055355588613e-06 1
3.25000000000000011102e-01  1.25000000000000000000e-01  3.26296920768696874227e-01  5.65610133862470831900e-06 1
3.33333333333333314830e-01  1.25000000000000000000e-01  3.31417158923516197433e-01  3.58488792440159187436e-06 1
3.41666666666666674068e-01  1.25000000000000000000e-01  3.36310260312272957250e-01  1.51121761421402212022e-06 1
3.49999999999999977796e-01  1.25000000000000000000e-01  3.40972871447674130696e-01  5.63488418869884100104e-07 1
3.58333333333333337034e-01  1.25000000000000000000e-01  3.45401796808976369046e-01  2.63780824882875464255e-06 1
3.66666666666666640761e-01  1.25000000000000000000e-01  3.49594001031936385537e-01  4.71032027082873838708e-06 1
3.75000000000000000000e-01  1.25000000000000000000e-01  3.53546610989206921971e-01  6.77960406686439753798e-06 1
3.83333333333333359239e-01  1.25000000000000000000e-01  3.57256917759360637099e-01  8.84424145292106445027e-06 1
3.91666666666666662966e-01  1.25000000000000000000e-01  3.60722378483444405806e-01  1.09028174566372371146e-05 1
4.00000000000000022204e-01  1.25000000000000000000e-01  3.63940618107811753035e-01  1.29539212025409078421e-05 1
4.08333333333333325932e-01  1.25000000000000000000e-01  3.66909431011756270724e-01  1.49961469891879417560e-05 1
4.16666666666666685170e-01  1.25000000000000000000e-01  3.69626782519238250568e-01  1.70280951478640751873e-05 1
4.24999999999999988898e-01  1.25000000000000000000e-01  3.72090810293235985107e-01  1.90483731160040470343e-05 1
4.33333333333333348136e-01  1.25000000000000000000e-01  3.74299825612218084459e-01  2.10555962720793132803e-05 1
4.41666666666666651864e-01  1.25000000000000000000e-01  3.76252314527427467183e-01  2.30483889657184803923e-05 1
4.50000000000000011102e-01  1.25000000000000000000e-01  3.77946938900454942889e-01  2.50253854722215507422e-05 1
4.58333333333333314830e-01  1.25000000000000000000e-01  3.79382537320450852203e-01  2.69852308095175352776e-05 1
4.66666666666666674068e-01  1.25000000000000000000e-01  3.80558125899964572181e-01  2.89265818009254438437e-05 1
4.74999999999999977796e-01  1.25000000000000000000e-01  3.81472898949249406009e-01  3.08481079976941074960e-05 1
4.83333333333333337034e-01  1.25000000000000000000e-01  3.82126229528626459864e-01  3.27484924065868376886e-05 1
4.91666666666666640761e-01  1.25000000000000000000e-01  3.82517669877879717966e-01  3.46264326705481018109e-05 1
5.00000000000000000000e-01  1.25000000000000000000e-01  3.82646951723408845769e-01  3.64806416809360101183e-05 1
5.08333333333333303727e-01  1.25000000000000000000e-01  3.82513986461883614965e-01  3.83098486666511028886e-05 1
5.16666666666666718477e-01  1.25000000000000000000e-01  3.82118865220976822172e-01  4.01128000562245290439e-05 1
5.25000000000000022204e-01  1.25000000000000000000e-01  3.81461858797179975689e-01  4.18882600671244276214e-05 1
5.33333333333333325932e-01  1.25000000000000000000e-01  3.80543417469758171734e-01  4.36350120073814018440e-05 1
5.41666666666666629659e-01  1.25000000000000000000e-01  3.79364170692617574954e-01  4.53518586428502956664e-05 1
5.50000000000000044409e-01  1.25000000000000000000e-01  3.77924926662494831131e-01  4.70376234322777975194e-05 1
5.58333333333333348136e-01  1.25000000000000000000e-01  3.76226671765432285621e-01  4.86911509609555537281e-05 1
5.66666666666666651864e-01  1.25000000000000000000e-01  3.74270569900498173421e-01  5.03113079919903505299e-05 1
5.74999999999999955591e-01  1.25000000000000000000e-01  3.72057961682168647499e-01  5.18969841833971656797e-05 1
5.83333333333333370341e-01  1.25000000000000000000e-01  3.69590363521634324151e-01  5.34470927517904925708e-05 1
5.91666666666666674068e-01  1.25000000000000000000e-01  3.66869466587354087217e-01  5.49605713913714488683e-05 1
5.99999999999999977796e-01  1.25000000000000000000e-01  3.63897135646242875229e-01  5.64363827714742249952e-05 1
6.08333333333333281523e-01  1.25000000000000000000e-01  3.60675407785422064144e-01  5.78735154789788985852e-05 1
6.16666666666666696273e-01  1.25000000000000000000e-01  3.57206491016233196323e-01  5.92709845803618406990e-05 1
6.25000000000000000000e-01  1.25000000000000000000e-01  3.53492762760989454041e-01  6.06278322843323280722e-05 1
6.33333333333333303727e-01  1.25000000000000000000e-01  3.49536768223468130579e-01  6.19431287391392082498e-05 1
6.41666666666666718477e-01  1.25000000000000000000e-01  3.45341218644786063230e-01  6.32159724391345712036e-05 1
6.50000000000000022204e-01  1.25000000000000000000e-01  3.40908989445018906217e-01  6.44454910740943631708e-05 1
6.58333333333333325932e-01  1.25000000000000000000e-01  3.36243118252683714786e-01  6.56308419750284421923e-05 1
6.66666666666666629659e-01  1.25000000000000000000e-01  3.31346802822780894804e-01  6.67712128109010372157e-05 1
6.75000000000000044409e-01  1.25000000000000000000e-01  3.26223398845392031919e-01  6.78658219662731099220e-05 1
6.83333333333333348136e-01  1.25000000000000000000e-01  3.20876417645652778354e-01  6.89139192813215117894e-05 1
6.91666666666666651864e-01  1.25000000000000000000e-01  3.15309523777384137500e-01  6.99147864482996261870e-05 1
6.99999999999999955591e-01  1.25000000000000000000e-01  3.09526532511602781028e-01  7.08677374906541146515e-05 1
7.08333333333333370341e-01  1.25000000000000000000e-01  3.03531407221599436319e-01  7.17721193594922368675e-05 1
7.16666666666666674068e-01  1.25000000000000000000e-01  2.97328256666844092937e-01  7.26273121773313157234e-05 1
7.24999999999999977796e-01  1.25000000000000000000e-01  2.90921332176842406536e-01  7.34327298678727480308e-05 1
7.33333333333333281523e-01  1.25000000000000000000e-01  2.84315024737622712436e-01  7.41878204222334858287e-05 1
7.41666666666666696273e-01  1.25000000000000000000e-01  2.77513861982270126916e-01  7.48920663801722064079e-05 1
7.50000000000000000000e-01  1.25000000000000000000e-01  2.70522505088054587841e-01  7.55449850439182668538e-05 1
7.58333333333333303727e-01  1.25000000000000000000e-01  2.63345745581763379661e-01  7.61461289374709693334e-05 1
7.66666666666666718477e-01  1.25000000000000000000e-01  2.55988502055854993955e-01  7.66950860865422967549e-05 1
7.75000000000000022204e-01  1.25000000000000000000e-01  2.48455816797561873654e-01  7.71914802415729628393e-05 1
7.83333333333333325932e-01  1.25000000000000000000e-01  2.40752852333054712108e-01  7.76349712375834499767e-05 1
7.91666666666666629659e-01  1.25000000000000000000e-01  2.32884887889450803433e-01  7.80252550834359404064e-05 1
8.00000000000000044409e-01  1.25000000000000000000e-01  2.24857315776544275376e-01  7.83620643196314414780e-05 1
8.08333333333333348136e-01  1.25000000000000000000e-01  2.16675637691272016117e-01  7.86451681172584127211e-05 1
8.16666666666666651864e-01  1.25000000000000000000e-01  2.08345460947129273999e-01  7.88743724317031436044e-05 1
8.24999999999999955591e-01  1.25000000000000000000e-01  1.99872494631120889430e-01  7.90495202114271933169e-05 1
8.33333333333333370341e-01  1.25000000000000000000e-01  1.91262545691160634753e-01  7.91704913842283808378e-05 1
8.41666666666666674068e-01  1.25000000000000000000e-01  1.82521514956159869314e-01  7.92372030581633968183e-05 1
8.49999999999999977796e-01  1.25000000000000000000e-01  1.73655393091967091834e-01  7.92496095050887472411e-05 1
8.58333333333333281523e-01  1.25000000000000000000e-01  1.64670256495612010728e-01  7.92077022459813928634e-05 1
8.66666666666666696273e-01  1.25000000000000000000e-01  1.55572263130929949737e-01  7.91115099716410696828e-05 1
8.75000000000000000000e-01  1.25000000000000000000e-01  1.46367648308104836286e-01  7.89610986214606125344e-05 1
8.83333333333333303727e-01  1.25000000000000000000e-01  1.37062720410356414513e-01  7.87565712785653904149e-05 1
8.91666666666666718477e-01  1.25000000000000000000e-01  1.27663856570473743801e-01  7.84980681159952453640e-05 1
9.00000000000000022204e-01  1.25000000000000000000e-01  1.18177498300242198037e-01  7.81857663063600938358e-05 1
9.08333333333333325932e-01  1.25000000000000000000e-01  1.08610147075778026848e-01  7.78198798731949414886e-05 1
9.16666666666666629659e-01  1.25000000000000000000e-01  9.89683598817127641034e-02  7.74006595749554549002e-05 1
9.25000000000000044409e-01  1.25000000000000000000e-01  8.92587447173603248940e-02  7.69283927348762830434e-05 1
9.33333333333333348136e-01  1.25000000000000000000e-01  7.94879560679445790194e-02  7.64034030248800233309e-05 1
9.41666666666666651864e-01  1.25000000000000000000e-01  6.96626903439697964249e-02  7.58260502211061115929e-05 1
9.49999999999999955591e-01  1.25000000000000000000e-01  5.97896812917450143354e-02  7.51967300472167199388e-05 1
9.58333333333333370341e-01  1.25000000000000000000e-01  4.98756953785346804353e-02  7.45158737801357440311e-05 1
9.66666666666666674068e-01  1.25000000000000000000e-01  3.99275271550519617048e-02  7.37839480619770227143e-05 1
9.74999999999999977796e-01  1.25000000000000000000e-01  2.99519945988857040631e-02  7.30014545071988596447e-05 1
9.83333333333333281523e-01  1.25000000000000000000e-01  1.99559344417538780947e-02  7.21689294051752749937e-05 1
9.91666666666666696273e-01  1.25000000000000000000e-01  9.98079589580729356624e-03  3.66885314930665701327e-05 1
1.00000000000000000000e+00  1.25000000000000000000e-01  0.00000000000000000000e+00  4.68652040532629858459e-17 1
0.00000000000000000000e+00  1.33333333333333331483e-01  0.00000000000000000000e+00  0.00000000000000000000e+00 1
8.33333333333333321769e-03  1.33333333333333331483e-01  1.06814429871109929648e-02  3.43189063979204567190e-05 1
1.66666666666666664354e-02  1.33333333333333331483e-01  2.13543956900035872271e-02  6.74445355866477858076e-05 1
2.50000000000000013878e-02  1.33333333333333331483e-01  3.19785017462358017726e-02  6.63125311292991903578e-05 1
3.33333333333333328707e-02  1.33333333333333331483e-01  4.25806913347328286346e-02  6.51350793753752155268e-05 1
4.16666666666666643537e-02  1.33333333333333331483e-01  5.31536982443419694921e-02  6.39129872915672470057e-05 1
5.00000000000000027756e-02  1.33333333333333331483e-01  6.36902762642613112787e-02  6.26470924391941963449e-05 1
5.83333333333333342585e-02  1.33333333333333331483e-01  7.41832041502288458412e-02  6.13382623983749208918e-05 1
6.66666666666666657415e-02  1.33333333333333331483e-01  8.46252905736066957099e-02  5.99873941776046804009e-05 1
7.49999999999999972244e-02  1.33333333333333331483e-01  9.50093790499507845349e-02  5.85954135911004314607e-05 1
8.33333333333333287074e-02  1.33333333333333331483e-01  1.05328352843720995935e-01  5.71632746376032896407e-05 1
9.16666666666666601904e-02  1.33333333333333331483e-01  1.15575139845717989040e-01  5.56919588282772659582e-05 1
1.00000000000000005551e-01  1.33333333333333331483e-01  1.25742717419974808779e-01  5.41824745352859071801e-05 1
1.08333333333333337034e-01  1.33333333333333331483e-01  1.35824117216698597721e-01  5.26358562784323691375e-05 1
1.16666666666666668517e-01  1.33333333333333331483e-01  1.45812429948049271378e-01  5.10531640361133742800e-05 1
1.25000000000000000000e-01  1.33333333333333331483e-01  1.55700810123405419816e-01  4.94354825038012535288e-05 1
1.33333333333333331483e-01  1.33333333333333331483e-01  1.65482480740935550267e-01  4.77839203646968080363e-05 1
1.41666666666666662966e-01  1.33333333333333331483e-01  1.75150737932196876034e-01  4.60996095101029457197e-05 1
1.49999999999999994449e-01  1.33333333333333331483e-01  1.84698955556653054977e-01  4.43837042848893581493e-05 1
1.58333333333333325932e-01  1.33333333333333331483e-01  1.94120589742890786722e-01  4.26373806871604976720e-05 1
1.66666666666666657415e-01  1.33333333333333331483e-01  2.03409183373462115751e-01  4.08618355620671280803e-05 1
1.74999999999999988898e-01  1.33333333333333331483e-01  2.12558370510259247999e-01  3.90582857705268349235e-05 1
1.83333333333333320381e-01  1.33333333333333331483e-01  2.21561880757440238243e-01  3.72279673849784664696e-05 1
1.91666666666666679619e-01  1.33333333333333331483e-01  2.30413543558807748513e-01  3.53721348049229611377e-05 1
2.00000000000000011102e-01  1.33333333333333331483e-01  2.39107292426842088506e-01  3.34920599392996010124e-05 1
2.08333333333333342585e-01  1.33333333333333331483e-01  2.47637169100316356651e-01  3.15890312822808549953e-05 1
2.16666666666666674068e-01  1.33333333333333331483e-01  2.55997327627840498554e-01  2.96643530797724430670e-05 1
2.25000000000000005551e-01  1.33333333333333331483e-01  2.64182038374367045286e-01  2.77193444181422776751e-05 1
2.33333333333333337034e-01  1.33333333333333331483e-01  2.72185691947964492066e-01  2.57553382878583647653e-05 1
2.41666666666666668517e-01  1.33333333333333331483e-01  2.80002803044300585533e-01  2.37736807563448948599e-05 1
2.50000000000000000000e-01  1.33333333333333331483e-01  2.87628014205863924424e-01  2.17757299132426140886e-05 1
2.58333333333333359239e-01  1.33333333333333331483e-01  2.95056099493847479032e-01  1.97628550895889709693e-05 1
2.66666666666666662966e-01  1.33333333333333331483e-01  3.02281968069595952109e-01  1.77364357692999519145e-05 1
2.75000000000000022204e-01  1.33333333333333331483e-01  3.09300667683780394768e-01  1.56978608114033413301e-05 1
2.83333333333333325932e-01  1.33333333333333331483e-01  3.16107388070223038756e-01  1.36485272995701123477e-05 1
2.91666666666666685170e-01  1.33333333333333331483e-01  3.22697464242815312829e-01  1.15898397853864132401e-05 1
2.99999999999999988898e-01  1.33333333333333331483e-01  3.29066379692496691067e-01  9.52320915709181647912e-06 1
3.08333333333333348136e-01  1.33333333333333331483e-01  3.35209769482777530936e-01  7.45005180519120457916e-06 1
3.16666666666666651864e-01  1.33333333333333331483e-01  3.41123423241162071484e-01  5.37178856557796180482e-06 1
3.25000000000000011102e-01  1.33333333333333331483e-01  3.46803288044739033147e-01  3.28984375708163412355e-06 1
3.33333333333333314830e-01  1.33333333333333331483e-01  3.52245471197909887362e-01  1.20564426298042093322e-06 1
3.41666666666666674068e-01  1.33333333333333331483e-01  3.57446242900183064339e-01  8.79381511997845422002e-07 1
3.49999999999999977796e-01  1.33333333333333331483e-01  3.62402038802403236861e-01  2.96380461023426633460e-06 1
3.58333333333333337034e-01  1.33333333333333331483e-01  3.67109462449605072898e-01  5.04619647373472091090e-06 1
3.66666666666666640761e-01  1.33333333333333331483e-01  3.71565287608785599360e-01  7.12512991146718732693e-06 1
3.75000000000000000000e-01  1.33333333333333331483e-01  3.75766460479928343652e-01  9.19918015201970362682e-06 1
3.83333333333333359239e-01  1.33333333333333331483e-01  3.79710101789015541662e-01  1.12669257300579417347e-05 1
3.91666666666666662966e-01  1.33333333333333331483e-01  3.83393508761271817331e-01  1.33269495276033822506e-05 1
4.00000000000000022204e-01  1.33333333333333331483e-01  3.86814156973575795639e-01  1.53778396799753025448e-05 1
4.08333333333333325932e-01  1.33333333333333331483e-01  3.89969702084477509718e-01  1.74181906400505681631e-05 1
4.16666666666666685170e-01  1.33333333333333331483e-01  3.92857981440989212363e-01  1.94466040449037258497e-05 1
4.24999999999999988898e-01  1.33333333333333331483e-01  3.95477015560724953769e-01  2.14616897090125213765e-05 1
4.33333333333333348136e-01  1.33333333333333331483e-01  3.97825009488485759057e-01  2.34620666304530267610e-05 1
4.41666666666666651864e-01  1.33333333333333331483e-01  3.99900354026573368049e-01  2.54463637956447996658e-05 1
4.50000000000000011102e-01  1.33333333333333331483e-01  4.01701626837475511689e-01  2.74132212984001810696e-05 1
4.58333333333333314830e-01  1.33333333333333331483e-01  4.03227593418775620560e-01  2.93612911600460435579e-05 1
4.66666666666666674068e-01  1.33333333333333331483e-01  4.04477207949217543170e-01  3.12892382560714388262e-05 1
4.74999999999999977796e-01  1.33333333333333331483e-01  4.05449614005424563423e-01  3.31957412650352168271e-05 1
4.83333333333333337034e-01  1.33333333333333331483e-01  4.06144145148856050564e-01  3.50794935674025865069e-05 1
4.91666666666666640761e-01  1.33333333333333331483e-01  4.06560325382547049777e-01  3.69392041453253661132e-05 1
5.00000000000000000000e-01  1.33333333333333331483e-01  4.06697869477380513636e-01  3.87735984196391214596e-05 1
5.08333333333333303727e-01  1.33333333333333331483e-01  4.06556683167435761739e-01  4.05814192566134046558e-05 1
5.16666666666666718477e-01  1.33333333333333331483e-01  4.06136863214887788853e-01  4.23614275356642977499e-05 1
5.25000000000000022204e-01  1.33333333333333331483e-01  4.05438697343193876765e-01  4.41124034957218746911e-05 1
5.33333333333333325932e-01  1.33333333333333331483e-01  4.04462664040530828213e-01  4.58331469428419069345e-05 1
5.41666666666666629659e-01  1.33333333333333331483e-01  4.03209432231225572973e-01  4.75224787101491408237e-05 1
5.50000000000000044409e-01  1.33333333333333331483e-01  4.01679860817898637393e-01  4.91792408752189658117e-05 1
5.58333333333333348136e-01  1.33333333333333331483e-01  3.99874998092283606699e-01  5.08022980854616612589e-05 1
5.66666666666666651864e-01  1.33333333333333331483e-01  3.97796081017174563144e-01  5.23905379416489402900e-05 1
5.74999999999999955591e-01  1.33333333333333331483e-01  3.95444534378530998531e-01  5.39428719030232706189e-05 1
5.83333333333333370341e-01  1.33333333333333331483e-01  3.92821969808849258410e-01  5.54582361848576788077e-05 1
5.91666666666666674068e-01  1.33333333333333331483e-01  3.89930184683046077154e-01  5.69355920714831320595e-05 1
5.99999999999999977796e-01  1.33333333333333331483e-01  3.86771160886013987135e-01  5.83739272418393184694e-05 1
6.08333333333333281523e-01  1.33333333333333331483e-01  3.83347063455040049096e-01  5.97722557593716175006e-05 1
6.16666666666666696273e-01  1.33333333333333331483e-01  3.79660239095360896311e-01  6.11296193847032931501e-05 1
6.25000000000000000000e-01  1.33333333333333331483e-01  3.75713214572219011966e-01  6.24450878613513893356e-05 1
6.33333333333333303727e-01  1.33333333333333331483e-01  3.71508694979180542628e-01  6.37177595165794308230e-05 1
6.41666666666666718477e-01  1.33333333333333331483e-01  3.67049561883801223061e-01  6.49467622775845576655e-05 1
6.50000000000000022204e-01  1.33333333333333331483e-01  3.62338871353302061085e-01  6.61312537114100429392e-05 1
6.58333333333333325932e-01  1.33333333333333331483e-01  3.57379851859547292836e-01  6.72704221477693486975e-05 1
6.66666666666666629659e-01  1.33333333333333331483e-01  3.52175902066923118827e-01  6.83634867238436250148e-05 1
6.75000000000000044409e-01  1.33333333333333331483e-01  3.46730588502517478311e-01  6.94096984645287129467e-05 1
6.83333333333333348136e-01  1.33333333333333331483e-01  3.41047643112402487642e-01  7.04083401940058806190e-05 1
6.91666666666666651864e-01  1.33333333333333331483e-01  3.35130960703383329324e-01  7.13587275890659178401e-05 1
6.99999999999999955591e-01  1.33333333333333331483e-01  3.28984596274030371976e-01  7.22602093092272745878e-05 1
7.08333333333333370341e-01  1.33333333333333331483e-01  3.22612762235604477734e-01  7.31121674254486819677e-05 1
7.16666666666666674068e-01  1.33333333333333331483e-01  3.16019825524745723300e-01  7.39140181778563665205e-05 1
7.24999999999999977796e-01  1.33333333333333331483e-01  3.09210304611065411873e-01  7.46652119035795536206e-05 1
7.33333333333333281523e-01  1.33333333333333331483e-01  3.02188866399953626196e-01  7.53652338731369830782e-05 1
7.41666666666666696273e-01  1.33333333333333331483e-01  2.94960323034522242658e-01  7.60136042355918917224e-05 1
7.50000000000000000000e-01  1.33333333333333331483e-01  2.87529628597270381363e-01  7.66098786803559583802e-05 1
7.58333333333333303727e-01  1.33333333333333331483e-01  2.79901875714993753075e-01  7.71536485506540969936e-05 1
7.66666666666666718477e-01  1.33333333333333331483e-01  2.72082292068525355422e-01  7.76445411512227678941e-05 1
7.75000000000000022204e-01  1.33333333333333331483e-01  2.64076236809861419896e-01  7.80822200875386229768e-05 1
7.83333333333333325932e-01  1.33333333333333331483e-01  2.55889196889437953164e-01  7.84663853227174357130e-05 1
7.91666666666666629659e-01  1.33333333333333331483e-01  2.47526783295357544201e-01  7.87967736766148618699e-05 1
8.00000000000000044409e-01  1.33333333333333331483e-01  2.38994727208295454357e-01  7.90731586073900594158e-05 1
8.08333333333333348136e-01  1.33333333333333331483e-01  2.30298876073240982310e-01  7.92953507618432418269e-05 1
8.16666666666666651864e-01  1.33333333333333331483e-01  2.21445189592188174110e-01  7.94631978671966887617e-05 1
8.24999999999999955591e-01  1.33333333333333331483e-01  2.12439735639667948153e-01  7.95765848208285220267e-05 1
8.33333333333333370341e-01  1.33333333333333331483e-01  2.03288686103898774693e-01  7.96354340012739303489e-05 1
8.41666666666666674068e-01  1.33333333333333331483e-01  1.93998312657211513521e-01  7.96397049922237254549e-05 1
8.49999999999999977796e-01  1.33333333333333331483e-01  1.84574982457408498515e-01  7.95893949597226146864e-05 1
8.58333333333333281523e-01  1.33333333333333331483e-01  1.75025153784411219293e-01  7.94845382757203289259e-05 1
8.66666666666666696273e-01  1.33333333333333331483e-01  1.65355371613670670827e-01  7.93252069001271209459e-05 1
8.75000000000000000000e-01  1.33333333333333331483e-01  1.55572263130932836317e-01  7.91115099688377565457e-05 1
8.83333333333333303727e-01  1.33333333333333331483e-01  1.45682533190038543403e-01  7.88435939747811342926e-05 1
8.91666666666666718477e-01  1.33333333333333331483e-01  1.35692959717914674034e-01  7.85216425054080513490e-05 1
9.00000000000000022204e-01  1.33333333333333331483e-01  1.25610389069203659540e-01  7.81458762359188430224e-05 1
9.08333333333333325932e-01  1.33333333333333331483e-01  1.15441731334210984095e-01  7.77165526787276794707e-05 1
9.16666666666666629659e-01  1.33333333333333331483e-01  1.05193955603005123711e-01  7.72339660783938342092e-05 1
9.25000000000000044409e-01  1.33333333333333331483e-01  9.48740851891772402071e-02  7.66984471824994074041e-05 1
9.33333333333333348136e-01  1.33333333333333331483e-01  8.44891928164387129296e-02  7.61103629903780998234e-05 1
9.41666666666666651864e-01  1.33333333333333331483e-01  7.40463957712500786545e-02  7.54701165804894102962e-05 1
9.49999999999999955591e-01  1.33333333333333331483e-01  6.35528510251324590952e-02  7.47781466896996205307e-05 1
9.58333333333333370341e-01  1.33333333333333331483e-01  5.30157503294296020280e-02  7.40349276208002171629e-05 1
9.66666666666666674068e-01  1.33333333333333331483e-01  4.24423152866632291680e-02  7.32409686943352733479e-05 1
9.74999999999999977796e-01  1.33333333333333331483e-01  3.18397924010338367884e-02  7.23968140727213049779e-05 1
9.83333333333333281523e-01  1.33333333333333331483e-01  2.12154481121294147261e-02  7.15030422876947180377e-05 1
9.91666666666666696273e-01  1.33333333333333331483e-01  1.06107752253510531637e-02  3.63488553619499554781e-05 1
1.00000000000000000000e+00  1.33333333333333331483e-01  0.00000000000000000000e+00  4.98108728038718145694e-17 1
0.00000000000000000000e+00  1.41666666666666662966e-01  0.00000000000000000000e+00  0.00000000000000000000e+00 1
8.33333333333333321769e-03  1.41666666666666662966e-01  1.13033023916975193524e-02  3.38356645810059669666e-05 1
1.66666666666666664354e-02  1.41666666666666662966e-01  2.25977023418469299965e-02  6.64924171862452118020e-05 1
2.50000000000000013878e-02  1.41666666666666662966e-01  3.38428139931506791194e-02  6.53026367691336706578e-05 1
3.33333333333333328707e-02  1.41666666666666662966e-01  4.50647314702302195788e-02  6.40681011871493955034e-05 1
4.16666666666666643537e-02  1.41666666666666662966e-01  5.62557638313934474383e-02  6.27896565286931163108e-05 1
5.00000000000000027756e-02  1.41666666666666662966e-01  6.74082413020652276847e-02  6.14681789765370023559e-05 1
5.83333333333333342585e-02  1.41666666666666662966e-01  7.85145205312639121731e-02  6.01045742034816976584e-05 1
6.66666666666666657415e-02  1.41666666666666662966e-01  8.95669898299793626473e-02  5.86997767586666663320e-05 1
7.49999999999999972244e-02  1.41666666666666662966e-01  1.00558074387836773878e-01  5.72547494194219908081e-05 1
8.33333333333333287074e-02  1.41666666666666662966e-01  1.11480241464495061221e-01  5.57704825332600018228e-05 1
9.16666666666666601904e-02  1.41666666666666662966e-01  1.22326005552219160832e-01  5.42479933474393494208e-05 1
1.00000000000000005551e-01  1.41666666666666662966e-01  1.33087933506052608079e-01  5.26883252912613286867e-05 1
1.08333333333333337034e-01  1.41666666666666662966e-01  1.43758649638158819695e-01  5.10925472959333770717e-05 1
1.16666666666666668517e-01  1.41666666666666662966e-01  1.54330840772701149977e-01  4.94617530141794325971e-05 1
1.25000000000000000000e-01  1.41666666666666662966e-01  1.64797261257976751514e-01  4.77970601189536825615e-05 1
1.33333333333333331483e-01  1.41666666666666662966e-01  1.75150737932196959301e-01  4.60996095101862124466e-05 1
1.41666666666666662966e-01  1.41666666666666662966e-01  1.85384175039607190794e-01  4.43705645259695469207e-05 1
1.49999999999999994449e-01  1.41666666666666662966e-01  1.95490559093599247653e-01  4.26111101809734105217e-05 1
1.58333333333333325932e-01  1.41666666666666662966e-01  2.05462963683352012323e-01  4.08224523016642582007e-05 1
1.66666666666666657415e-01  1.41666666666666662966e-01  2.15294554220902822905e-01  3.90058167553108958714e-05 1
1.74999999999999988898e-01  1.41666666666666662966e-01  2.24978592625198259292e-01  3.71624485751842481562e-05 1