Titile = 'Poisson'  
VARIABLES = X, Y, U, Error 
zone N= 6561, E = 12800
DATAPACKING=POINT, ZONETYPE=FETRIANGLE
0.00000000000000000000e+00  0.00000000000000000000e+00  0.00000000000000000000e+00  0.00000000000000000000e+00
1.25000000000000006939e-02  0.00000000000000000000e+00  0.00000000000000000000e+00  0.00000000000000000000e+00
2.50000000000000013878e-02  0.00000000000000000000e+00  0.00000000000000000000e+00  0.00000000000000000000e+00
3.74999999999999986122e-02  0.00000000000000000000e+00  0.00000000000000000000e+00  0.00000000000000000000e+00
5.00000000000000027756e-02  0.00000000000000000000e+00  0.00000000000000000000e+00  0.00000000000000000000e+00
6.25000000000000000000e-02  0.00000000000000000000e+00  0.00000000000000000000e+00  0.00000000000000000000e+00
7.49999999999999972244e-02  0.00000000000000000000e+00  0.00000000000000000000e+00  0.00000000000000000000e+00
8.74999999999999944489e-02  0.00000000000000000000e+00  0.00000000000000000000e+00  0.00000000000000000000e+00
1.00000000000000005551e-01  0.00000000000000000000e+00  0.00000000000000000000e+00  0.00000000000000000000e+00
1.12500000000000002776e-01  0.00000000000000000000e+00  0.00000000000000000000e+00  0.00000000000000000000e+00
1.25000000000000000000e-01  0.00000000000000000000e+00  0.00000000000000000000e+00  0.00000000000000000000e+00
1.37500000000000011102e-01  0.00000000000000000000e+00  0.00000000000000000000e+00  0.00000000000000000000e+00
1.49999999999999994449e-01  0.00000000000000000000e+00  0.00000000000000000000e+00  0.00000000000000000000e+00
1.62500000000000005551e-01  0.00000000000000000000e+00  0.00000000000000000000e+00  0.00000000000000000000e+00
1.74999999999999988898e-01  0.00000000000000000000e+00  0.00000000000000000000e+00  0.00000000000000000000e+00
1.87500000000000000000e-01  0.00000000000000000000e+00  0.00000000000000000000e+00  0.00000000000000000000e+00
2.00000000000000011102e-01  0.00000000000000000000e+00  0.00000000000000000000e+00  0.00000000000000000000e+00
2.12499999999999994449e-01  0.00000000000000000000e+00  0.00000000000000000000e+00  0.00000000000000000000e+00
2.25000000000000005551e-01  0.00000000000000000000e+00  0.00000000000000000000e+00  0.00000000000000000000e+00
2.37499999999999988898e-01  0.00000000000000000000e+00  0.00000000000000000000e+00  0.00000000000000000000e+00
2.50000000000000000000e-01  0.00000000000000000000e+00  0.00000000000000000000e+00  0.00000000000000000000e+00
2.62500000000000011102e-01  0.00000000000000000000e+00  0.00000000000000000000e+00  0.00000000000000000000e+00
2.75000000000000022204e-01  0.00000000000000000000e+00  0.00000000000000000000e+00  0.00000000000000000000e+00
2.87499999999999977796e-01  0.00000000000000000000e+00  0.00000000000000000000e+00  0.00000000000000000000e+00
2.99999999999999988898e-01  0.00000000000000000000e+00  0.00000000000000000000e+00  0.00000000000000000000e+00
3.12500000000000000000e-01  0.00000000000000000000e+00  0.00000000000000000000e+00  0.00000000000000000000e+00
3.25000000000000011102e-01  0.00000000000000000000e+00  0.00000000000000000000e+00  0.00000000000000000000e+00
3.37500000000000022204e-01  0.00000000000000000000e+00  0.00000000000000000000e+00  0.00000000000000000000e+00
3.49999999999999977796e-01  0.00000000000000000000e+00  0.00000000000000000000e+00  0.00000000000000000000e+00
3.62499999999999988898e-01  0.00000000000000000000e+00  0.00000000000000000000e+00  0.00000000000000000000e+00
3.75000000000000000000e-01  0.00000000000000000000e+00  0.00000000000000000000e+00  0.00000000000000000000e+00
3.87500000000000011102e-01  0.00000000000000000000e+00  0.00000000000000000000e+00  0.00000000000000000000e+00
4.00000000000000022204e-01  0.00000000000000000000e+00  0.00000000000000000000e+00  0.00000000000000000000e+00
4.12499999999999977796e-01  0.00000000000000000000e+00  0.00000000000000000000e+00  0.00000000000000000000e+00
4.24999999999999988898e-01  0.00000000000000000000e+00  0.00000000000000000000e+00  0.00000000000000000000e+00
4.37500000000000000000e-01  0.00000000000000000000e+00  0.00000000000000000000e+00  0.00000000000000000000e+00
4.50000000000000011102e-01  0.00000000000000000000e+00  0.00000000000000000000e+00  0.00000000000000000000e+00
4.62500000000000022204e-01  0.00000000000000000000e+00  0.00000000000000000000e+00  0.00000000000000000000e+00
4.74999999999999977796e-01  0.00000000000000000000e+00  0.00000000000000000000e+00  0.00000000000000000000e+00
4.87499999999999988898e-01  0.00000000000000000000e+00  0.00000000000000000000e+00  0.00000000000000000000e+00
5.00000000000000000000e-01  0.00000000000000000000e+00  0.00000000000000000000e+00  0.00000000000000000000e+00
5.12499999999999955591e-01  0.00000000000000000000e+00  0.00000000000000000000e+00  0.00000000000000000000e+00
5.25000000000000022204e-01  0.00000000000000000000e+00  0.00000000000000000000e+00  0.00000000000000000000e+00
5.37499999999999977796e-01  0.00000000000000000000e+00  0.00000000000000000000e+00  0.00000000000000000000e+00
5.50000000000000044409e-01  0.00000000000000000000e+00  0.00000000000000000000e+00  0.00000000000000000000e+00
5.62500000000000000000e-01  0.00000000000000000000e+00  0.00000000000000000000e+00  0.00000000000000000000e+00
5.74999999999999955591e-01  0.00000000000000000000e+00  0.00000000000000000000e+00  0.00000000000000000000e+00
5.87500000000000022204e-01  0.00000000000000000000e+00  0.00000000000000000000e+00  0.00000000000000000000e+00
5.99999999999999977796e-01  0.00000000000000000000e+00  0.00000000000000000000e+00  0.00000000000000000000e+00
6.12500000000000044409e-01  0.00000000000000000000e+00  0.00000000000000000000e+00  0.00000000000000000000e+00
6.25000000000000000000e-01  0.00000000000000000000e+00  0.00000000000000000000e+00  0.00000000000000000000e+00
6.37499999999999955591e-01  0.00000000000000000000e+00  0.00000000000000000000e+00  0.00000000000000000000e+00
6.50000000000000022204e-01  0.00000000000000000000e+00  0.00000000000000000000e+00  0.00000000000000000000e+00
6.62499999999999977796e-01  0.00000000000000000000e+00  0.00000000000000000000e+00  0.00000000000000000000e+00
6.75000000000000044409e-01  0.00000000000000000000e+00  0.00000000000000000000e+00  0.00000000000000000000e+00
6.87500000000000000000e-01  0.00000000000000000000e+00  0.00000000000000000000e+00  0.00000000000000000000e+00
6.99999999999999955591e-01  0.00000000000000000000e+00  0.00000000000000000000e+00  0.00000000000000000000e+00
7.12500000000000022204e-01  0.00000000000000000000e+00  0.00000000000000000000e+00  0.00000000000000000000e+00
7.24999999999999977796e-01  0.00000000000000000000e+00  0.00000000000000000000e+00  0.00000000000000000000e+00
7.37500000000000044409e-01  0.00000000000000000000e+00  0.00000000000000000000e+00  0.00000000000000000000e+00
7.50000000000000000000e-01  0.00000000000000000000e+00  0.00000000000000000000e+00  0.00000000000000000000e+00
7.62499999999999955591e-01  0.00000000000000000000e+00  0.00000000000000000000e+00  0.00000000000000000000e+00
7.75000000000000022204e-01  0.00000000000000000000e+00  0.00000000000000000000e+00  0.00000000000000000000e+00
7.87499999999999977796e-01  0.00000000000000000000e+00  0.00000000000000000000e+00  0.00000000000000000000e+00
8.00000000000000044409e-01  0.00000000000000000000e+00  0.00000000000000000000e+00  0.00000000000000000000e+00
8.12500000000000000000e-01  0.00000000000000000000e+00  0.00000000000000000000e+00  0.00000000000000000000e+00
8.24999999999999955591e-01  0.00000000000000000000e+00  0.00000000000000000000e+00  0.00000000000000000000e+00
8.37500000000000022204e-01  0.00000000000000000000e+00  0.00000000000000000000e+00  0.00000000000000000000e+00
8.49999999999999977796e-01  0.00000000000000000000e+00  0.00000000000000000000e+00  0.00000000000000000000e+00
8.62500000000000044409e-01  0.00000000000000000000e+00  0.00000000000000000000e+00  0.00000000000000000000e+00
8.75000000000000000000e-01  0.00000000000000000000e+00  0.00000000000000000000e+00  0.00000000000000000000e+00
8.87499999999999955591e-01  0.00000000000000000000e+00  0.00000000000000000000e+00  0.00000000000000000000e+00
9.00000000000000022204e-01  0.00000000000000000000e+00  0.00000000000000000000e+00  0.00000000000000000000e+00
9.12499999999999977796e-01  0.00000000000000000000e+00  0.00000000000000000000e+00  0.00000000000000000000e+00
9.25000000000000044409e-01  0.00000000000000000000e+00  0.00000000000000000000e+00  0.00000000000000000000e+00
9.37500000000000000000e-01  0.00000000000000000000e+00  0.00000000000000000000e+00  0.00000000000000000000e+00
9.49999999999999955591e-01  0.00000000000000000000e+00  0.00000000000000000000e+00  0.00000000000000000000e+00
9.62500000000000022204e-01  0.00000000000000000000e+00  0.00000000000000000000e+00  0.00000000000000000000e+00
9.74999999999999977796e-01  0.00000000000000000000e+00  0.00000000000000000000e+00  0.00000000000000000000e+00
9.87500000000000044409e-01  0.00000000000000000000e+00  0.00000000000000000000e+00  0.00000000000000000000e+00
1.00000000000000000000e+00  0.00000000000000000000e+00  0.00000000000000000000e+00  0.00000000000000000000e+00
0.00000000000000000000e+00  1.25000000000000006939e-02  0.00000000000000000000e+00  0.00000000000000000000e+00
1.25000000000000006939e-02  1.25000000000000006939e-02  1.54199511682426878938e-03  6.61983388256784030523e-07
2.50000000000000013878e-02  1.25000000000000006939e-02  3.08135033211794778785e-03  1.06068921962819417981e-06
3.74999999999999986122e-02  1.25000000000000006939e-02  4.61579763433888831670e-03  1.30106534376294574740e-06
5.00000000000000027756e-02  1.25000000000000006939e-02  6.14302101899100519433e-03  1.43274314308178968291e-06
6.25000000000000000000e-02  1.25000000000000006939e-02  7.66069322999776529393e-03  1.48313126720374388601e-06
7.49999999999999972244e-02  1.25000000000000006939e-02  9.16649130073255401230e-03  1.46932594097433366631e-06
8.74999999999999944489e-02  1.25000000000000006939e-02  1.06581050506801399552e-02  1.40299941862528920744e-06
1.00000000000000005551e-01  1.25000000000000006939e-02  1.21332429342993295546e-02  1.29266871775300662417e-06
1.12500000000000002776e-01  1.25000000000000006939e-02  1.35896367581814035003e-02  1.14486624799500780192e-06
1.25000000000000000000e-01  1.25000000000000006939e-02  1.50250458473206831289e-02  9.64798619265336276918e-07
1.37500000000000011102e-01  1.25000000000000006939e-02  1.64372609055710994230e-02  7.56744111651830309029e-07
1.49999999999999994449e-01  1.25000000000000006939e-02  1.78241076823275924890e-02  5.24306185502310118096e-07
1.62500000000000005551e-01  1.25000000000000006939e-02  1.91834504997250299141e-02  2.70582587211243286163e-07
1.74999999999999988898e-01  1.25000000000000006939e-02  2.05131956674907238447e-02  1.71763521114587369709e-09
1.87500000000000000000e-01  1.25000000000000006939e-02  2.18112947989058045262e-02  2.90190666593637125459e-07
2.00000000000000011102e-01  1.25000000000000006939e-02  2.30757480340429178833e-02  5.92676857237572907167e-07
2.12499999999999994449e-01  1.25000000000000006939e-02  2.43046071723893204741e-02  9.07215068922384570982e-07
2.25000000000000005551e-01  1.25000000000000006939e-02  2.54959787146184571616e-02  1.23200791123795339033e-06
2.37499999999999988898e-01  1.25000000000000006939e-02  2.66480268118921975740e-02  1.56539484950576901490e-06
2.50000000000000000000e-01  1.25000000000000006939e-02  2.77589761202575759091e-02  1.90583111431968932337e-06
2.62500000000000011102e-01  1.25000000000000006939e-02  2.88271145572178040528e-02  2.25187096413240195325e-06
2.75000000000000022204e-01  1.25000000000000006939e-02  2.98507959572883868615e-02  2.60215426549359474251e-06
2.87499999999999977796e-01  1.25000000000000006939e-02  3.08284426232225752806e-02  2.95539563268526483952e-06
2.99999999999999988898e-01  1.25000000000000006939e-02  3.17585477695449744373e-02  3.31037557090713141505e-06
3.12500000000000000000e-01  1.25000000000000006939e-02  3.26396778550621588511e-02  3.66593319997554623058e-06
3.25000000000000011102e-01  1.25000000000000006939e-02  3.34704748010844627126e-02  4.02096023917331013564e-06
3.37500000000000022204e-01  1.25000000000000006939e-02  3.42496580921954063559e-02  4.37439600563249708642e-06
3.49999999999999977796e-01  1.25000000000000006939e-02  3.49760267565314350580e-02  4.72522323199248139858e-06
3.62499999999999988898e-01  1.25000000000000006939e-02  3.56484612226772995536e-02  5.07246455121179717906e-06
3.75000000000000000000e-01  1.25000000000000006939e-02  3.62659250504416344474e-02  5.41517952592357465491e-06
3.87500000000000011102e-01  1.25000000000000006939e-02  3.68274665329486813881e-02  5.75246212249774790948e-06
4.00000000000000022204e-01  1.25000000000000006939e-02  3.73322201676578036000e-02  6.08343855156012747187e-06
4.12499999999999977796e-01  1.25000000000000006939e-02  3.77794079941166441317e-02  6.40726540436509228726e-06
4.24999999999999988898e-01  1.25000000000000006939e-02  3.81683407964392845679e-02  6.72312803370878064868e-06
4.37500000000000000000e-01  1.25000000000000006939e-02  3.84984191687078175503e-02  7.03023912945743845171e-06
4.50000000000000011102e-01  1.25000000000000006939e-02  3.87691344416972380471e-02  7.32783744807757875250e-06
4.62500000000000022204e-01  1.25000000000000006939e-02  3.89800694695289426384e-02  7.61518666402005717231e-06
4.74999999999999977796e-01  1.25000000000000006939e-02  3.91308992750749387590e-02  7.89157430958198347071e-06
4.87499999999999988898e-01  1.25000000000000006939e-02  3.92213915531459331176e-02  8.15631077653866665145e-06
5.00000000000000000000e-01  1.25000000000000006939e-02  3.92514070307140652827e-02  8.40872835454475886507e-06
5.12499999999999955591e-01  1.25000000000000006939e-02  3.92208996836395720753e-02  8.64818028289970897049e-06
5.25000000000000022204e-01  1.25000000000000006939e-02  3.91299168095915333998e-02  8.87403979298734268966e-06
5.37499999999999977796e-01  1.25000000000000006939e-02  3.89785989570729657361e-02  9.08569911999695944971e-06
5.50000000000000044409e-01  1.25000000000000006939e-02  3.87671797106833374014e-02  9.28256846197128560050e-06
5.62500000000000000000e-01  1.25000000000000006939e-02  3.84959853329726112148e-02  9.46407486466377401158e-06
5.74999999999999955591e-01  1.25000000000000006939e-02  3.81654342634652823940e-02  9.62966100771095456778e-06
5.87500000000000022204e-01  1.25000000000000006939e-02  3.77760364756518224327e-02  9.77878386918679121109e-06
5.99999999999999977796e-01  1.25000000000000006939e-02  3.73283926929702247755e-02  9.91091323913895205777e-06
6.12500000000000044409e-01  1.25000000000000006939e-02  3.68231934650171330303e-02  1.00255300540391667496e-05
6.25000000000000000000e-01  1.25000000000000006939e-02  3.62612181054511178990e-02  1.01221245164401230099e-05
6.37499999999999955591e-01  1.25000000000000006939e-02  3.56433334932684392493e-02  1.02001939600790403340e-05
6.50000000000000022204e-01  1.25000000000000006939e-02  3.49704927393475056840e-02  1.02592404159287942100e-05
6.62499999999999977796e-01  1.25000000000000006939e-02  3.42437337203789424200e-02  1.02987678221033718273e-05
6.75000000000000044409e-01  1.25000000000000006939e-02  3.34641774825104251767e-02  1.03182788132177849505e-05
6.87500000000000000000e-01  1.25000000000000006939e-02  3.26330265172523614758e-02  1.03172710097798603357e-05
6.99999999999999955591e-01  1.25000000000000006939e-02  3.17515629124068970990e-02  1.02952327089844697383e-05
7.12500000000000022204e-01  1.25000000000000006939e-02  3.08211463809999509922e-02  1.02516378553095532933e-05
7.24999999999999977796e-01  1.25000000000000006939e-02  2.98432121714114935440e-02  1.01859401423869122549e-05
7.37500000000000044409e-01  1.25000000000000006939e-02  2.88192688621330232734e-02  1.00975660489097118777e-05
7.50000000000000000000e-01  1.25000000000000006939e-02  2.77508960448047854730e-02  9.98590656711359492270e-06
7.62499999999999955591e-01  1.25000000000000006939e-02  2.66397418994390212943e-02  9.85030730269592647019e-06
7.75000000000000022204e-01  1.25000000000000006939e-02  2.54875206660032278816e-02  9.69005652647417226042e-06
7.87499999999999977796e-01  1.25000000000000006939e-02  2.42960100168356646355e-02  9.50437062258863152309e-06
8.00000000000000044409e-01  1.25000000000000006939e-02  2.30670483347226000503e-02  9.29237617755887534976e-06
8.12500000000000000000e-01  1.25000000000000006939e-02  2.18025319018962035478e-02  9.05308767619461551845e-06
8.24999999999999955591e-01  1.25000000000000006939e-02  2.05044120057684096936e-02  8.78537935753223586666e-06
8.37500000000000022204e-01  1.25000000000000006939e-02  1.91746919679744547149e-02  8.48794916336395588452e-06
8.49999999999999977796e-01  1.25000000000000006939e-02  1.78154241043807920475e-02  8.15927176130507025853e-06
8.62500000000000044409e-01  1.25000000000000006939e-02  1.64287066253357982859e-02  7.79753612364583736927e-06
8.75000000000000000000e-01  1.25000000000000006939e-02  1.50166804880249582510e-02  7.40056067646474580179e-06
8.87499999999999955591e-01  1.25000000000000006939e-02  1.35815262170616585929e-02  6.96567487176204258592e-06
9.00000000000000022204e-01  1.25000000000000006939e-02  1.21254607169384645560e-02  6.48954864311546142375e-06
9.12499999999999977796e-01  1.25000000000000006939e-02  1.06507341138281017012e-02  5.96793743342684257502e-06
9.25000000000000044409e-01  1.25000000000000006939e-02  9.15962669154994808818e-03  5.39528324163679462444e-06
9.37500000000000000000e-01  1.25000000000000006939e-02  7.65444604441843819143e-03  4.76405431213723640216e-06
9.49999999999999955591e-01  1.25000000000000006939e-02  6.13752470286117995241e-03  4.06357298674778905090e-06
9.62500000000000022204e-01  1.25000000000000006939e-02  4.61121882355788274138e-03  3.27774543723829275832e-06
9.74999999999999977796e-01  1.25000000000000006939e-02  3.07790947123283290324e-03  2.38017166549146091947e-06
9.87500000000000044409e-01  1.25000000000000006939e-02  1.54001089979580716750e-03  1.32223364020071787461e-06
1.00000000000000000000e+00  1.25000000000000006939e-02  0.00000000000000000000e+00  4.80794077044581884336e-18
0.00000000000000000000e+00  2.50000000000000013878e-02  0.00000000000000000000e+00  0.00000000000000000000e+00
1.25000000000000006939e-02  2.50000000000000013878e-02  3.08135033211794605312e-03  1.06068921962645945634e-06
2.50000000000000013878e-02  2.50000000000000013878e-02  6.15758509248529387059e-03  1.75539005415736165672e-06
3.74999999999999986122e-02  2.50000000000000013878e-02  9.22406747514813163402e-03  2.18955640188950306779e-06
5.00000000000000027756e-02  2.50000000000000013878e-02  1.22761360203232413463e-02  2.42935259755355792421e-06
6.25000000000000000000e-02  2.50000000000000013878e-02  1.53091279303364559417e-02  2.51767969695372573202e-06
7.49999999999999972244e-02  2.50000000000000013878e-02  1.83183959845220692420e-02  2.48383452999476062040e-06
8.74999999999999944489e-02  2.50000000000000013878e-02  2.12993211248592162477e-02  2.34888448606002109287e-06
1.00000000000000005551e-01  2.50000000000000013878e-02  2.42473226265775797239e-02  2.12868338266003487291e-06
1.12500000000000002776e-01  2.50000000000000013878e-02  2.71578669407299307104e-02  1.83562644693810450569e-06
1.25000000000000000000e-01  2.50000000000000013878e-02  3.00264757708647370138e-02  1.47971747188266333772e-06
1.37500000000000011102e-01  2.50000000000000013878e-02  3.28487336712388056092e-02  1.06924639529243359348e-06
1.49999999999999994449e-01  2.50000000000000013878e-02  3.56202953153783932749e-02  6.11236781127011408188e-07
1.62500000000000005551e-01  2.50000000000000013878e-02  3.83368925130113807898e-02  1.11751743352150878508e-07
1.74999999999999988898e-01  2.50000000000000013878e-02  4.09943410161692500804e-02  4.23890540959814821065e-07
1.87500000000000000000e-01  2.50000000000000013878e-02  4.35885471349967551502e-02  9.90961029331827170097e-07
2.00000000000000011102e-01  2.50000000000000013878e-02  4.61155141723972386569e-02  1.58520463340583450673e-06
2.12499999999999994449e-01  2.50000000000000013878e-02  4.85713486800231214469e-02  2.20275340672565489442e-06
2.25000000000000005551e-01  2.50000000000000013878e-02  5.09522665341920130699e-02  2.84006000793313173602e-06
2.37499999999999988898e-01  2.50000000000000013878e-02  5.32545988279501877893e-02  3.49384595139945464126e-06
2.50000000000000000000e-01  2.50000000000000013878e-02  5.54747975740800397526e-02  4.16106084359657568683e-06
2.62500000000000011102e-01  2.50000000000000013878e-02  5.76094412130150126949e-02  4.83884991075989034925e-06
2.75000000000000022204e-01  2.50000000000000013878e-02  5.96552399191598858863e-02  5.52452787731805283755e-06
2.87499999999999977796e-01  2.50000000000000013878e-02  6.16090406989009201078e-02  6.21555776882803945327e-06
2.99999999999999988898e-01  2.50000000000000013878e-02  6.34678322735383465547e-02  6.90953357905532694616e-06
3.12500000000000000000e-01  2.50000000000000013878e-02  6.52287497404405863799e-02  7.60416599893121158971e-06
3.25000000000000011102e-01  2.50000000000000013878e-02  6.68890790058694895137e-02  8.29727059367679764534e-06
3.37500000000000022204e-01  2.50000000000000013878e-02  6.84462609831376356251e-02  8.98675794942793704223e-06
3.49999999999999977796e-01  2.50000000000000013878e-02  6.98978955500088594555e-02  9.67062542067687047620e-06
3.62499999999999988898e-01  2.50000000000000013878e-02  7.12417452595536376814e-02  1.03469501773478800288e-05
3.75000000000000000000e-01  2.50000000000000013878e-02  7.24757387989817120078e-02  1.10138833179646011828e-05
3.87500000000000011102e-01  2.50000000000000013878e-02  7.35979741913225377070e-02  1.16696448543840425316e-05
4.00000000000000022204e-01  2.50000000000000013878e-02  7.46067217351818051663e-02  1.23125194103762547471e-05
4.12499999999999977796e-01  2.50000000000000013878e-02  7.55004266781753030635e-02  1.29408525070540125768e-05
4.24999999999999988898e-01  2.50000000000000013878e-02  7.62777116200366034349e-02  1.35530473216738389652e-05
4.37500000000000000000e-01  2.50000000000000013878e-02  7.69373786417866800669e-02  1.41475618316150297815e-05
4.50000000000000011102e-01  2.50000000000000013878e-02  7.74784111577692530259e-02  1.47229062609777194837e-05
4.62500000000000022204e-01  2.50000000000000013878e-02  7.78999754877650885110e-02  1.52776407647409184776e-05
4.74999999999999977796e-01  2.50000000000000013878e-02  7.82014221468282505478e-02  1.58103732871839319785e-05
4.87499999999999988898e-01  2.50000000000000013878e-02  7.83822868509120029845e-02  1.63197575411139217394e-05
5.00000000000000000000e-01  2.50000000000000013878e-02  7.84422912367855468263e-02  1.68044910593967422585e-05
5.12499999999999955591e-01  2.50000000000000013878e-02  7.83813432951825372896e-02  1.72633132705796166206e-05
5.25000000000000022204e-01  2.50000000000000013878e-02  7.81995375165592671030e-02  1.76950035561673768569e-05
5.37499999999999977796e-01  2.50000000000000013878e-02  7.78971547492818966463e-02  1.80983792479327831870e-05
5.50000000000000044409e-01  2.50000000000000013878e-02  7.74746617705131257470e-02  1.84722935171049984504e-05
5.62500000000000000000e-01  2.50000000000000013878e-02  7.69327105704983166268e-02  1.88156331199784698782e-05
5.74999999999999955591e-01  2.50000000000000013878e-02  7.62721373514124861837e-02  1.91273159457910901793e-05
5.87500000000000022204e-01  2.50000000000000013878e-02  7.54939612423572714572e-02  1.94062883250856188511e-05
5.99999999999999977796e-01  2.50000000000000013878e-02  7.45993827325524827554e-02  1.96515220396986656226e-05
6.12500000000000044409e-01  2.50000000000000013878e-02  7.35897818251982499538e-02  1.98620109786579179811e-05
6.25000000000000000000e-01  2.50000000000000013878e-02  7.24667159149297163134e-02  2.00367673699602955040e-05
6.37499999999999955591e-01  2.50000000000000013878e-02  7.12319173922180415293e-02  2.01748175129579099263e-05
6.50000000000000022204e-01  2.50000000000000013878e-02  6.98872909785111656733e-02  2.02751969183845304201e-05
6.62499999999999977796e-01  2.50000000000000013878e-02  6.84349107963361652507e-02  2.03369447509121892281e-05
6.75000000000000044409e-01  2.50000000000000013878e-02  6.68770171790193795891e-02  2.03590974437867222591e-05
6.87500000000000000000e-01  2.50000000000000013878e-02  6.52160132251063395792e-02  2.03406813331918900900e-05
6.99999999999999955591e-01  2.50000000000000013878e-02  6.34544611029985855533e-02  2.02807041188163283962e-05
7.12500000000000022204e-01  2.50000000000000013878e-02  6.15950781117508006091e-02  2.01781449189475381445e-05
7.24999999999999977796e-01  2.50000000000000013878e-02  5.96407325044134503655e-02  2.00319426237535735957e-05
7.37500000000000044409e-01  2.50000000000000013878e-02  5.75944390807472672567e-02  1.98409821784983897430e-05
7.50000000000000000000e-01  2.50000000000000013878e-02  5.54593545566019474613e-02  1.96040783216958058865e-05
7.62499999999999955591e-01  2.50000000000000013878e-02  5.32387727177338829221e-02  1.93199561677320774677e-05
7.75000000000000022204e-01  2.50000000000000013878e-02  5.09361193663641700913e-02  1.89872278357899881840e-05
7.87499999999999977796e-01  2.50000000000000013878e-02  4.85549470693640988772e-02  1.86043640657690412255e-05
8.00000000000000044409e-01  2.50000000000000013878e-02  4.60989297176297441183e-02  1.81696594009073120191e-05
8.12500000000000000000e-01  2.50000000000000013878e-02  4.35718569070279240774e-02  1.76811889981629000168e-05
8.24999999999999955591e-01  2.50000000000000013878e-02  4.09776281523323154810e-02  1.71367543779082920352e-05
8.37500000000000022204e-01  2.50000000000000013878e-02  3.83202469469560852433e-02  1.65338143119364566758e-05
8.49999999999999977796e-01  2.50000000000000013878e-02  3.56038146832280688603e-02  1.58693953692043421277e-05
8.62500000000000044409e-01  2.50000000000000013878e-02  3.28325244508152064293e-02  1.51399740282928685353e-05
8.75000000000000000000e-01  2.50000000000000013878e-02  3.00106547352851776855e-02  1.43413181076870732689e-05
8.87499999999999955591e-01  2.50000000000000013878e-02  2.71425630458535134537e-02  1.34682684295069077240e-05
9.00000000000000022204e-01  2.50000000000000013878e-02  2.42326795131737500466e-02  1.25144300211800507672e-05
9.12499999999999977796e-01  2.50000000000000013878e-02  2.12855005186611094536e-02  1.14717217120745285097e-05
9.25000000000000044409e-01  2.50000000000000013878e-02  1.83055824544023811040e-02  1.03296955897037856520e-05
9.37500000000000000000e-01  2.50000000000000013878e-02  1.52975357837982460507e-02  9.07446684128392078161e-06
9.49999999999999955591e-01  2.50000000000000013878e-02  1.22660197119897410034e-02  7.68695573595545855738e-06
9.62500000000000022204e-01  2.50000000000000013878e-02  9.21573805005482422914e-03  6.13986869141096291980e-06
9.74999999999999977796e-01  2.50000000000000013878e-02  6.15143738203155314437e-03  4.39232039959290554432e-06
9.87500000000000044409e-01  2.50000000000000013878e-02  3.07790947123282683170e-03  2.38017166548452202557e-06
1.00000000000000000000e+00  2.50000000000000013878e-02  0.00000000000000000000e+00  9.60846804471010887295e-18
0.00000000000000000000e+00  3.74999999999999986122e-02  0.00000000000000000000e+00  0.00000000000000000000e+00
1.25000000000000006939e-02  3.74999999999999986122e-02  4.61579763433888744933e-03  1.30106534376207838566e-06
2.50000000000000013878e-02  3.74999999999999986122e-02  9.22406747514813163402e-03  2.18955640188950306779e-06
3.74999999999999986122e-02  3.74999999999999986122e-02  1.38177952023693911138e-02  2.75540120769218743746e-06
5.00000000000000027756e-02  3.74999999999999986122e-02  1.83899651580529469030e-02  3.06526451512162401158e-06
6.25000000000000000000e-02  3.74999999999999986122e-02  2.29335765922420095619e-02  3.16787325481057702170e-06
7.49999999999999972244e-02  3.74999999999999986122e-02  2.74416598576014726663e-02  3.09934138039563711331e-06
8.74999999999999944489e-02  3.74999999999999986122e-02  3.19072911475745055188e-02  2.88710564901734079157e-06
1.00000000000000005551e-01  3.74999999999999986122e-02  3.63236058796806773885e-02  2.55259060610857346774e-06
1.12500000000000002776e-01  3.74999999999999986122e-02  4.06838110795343793624e-02  2.11297488000861122259e-06
1.25000000000000000000e-01  3.74999999999999986122e-02  4.49811970588791174008e-02  1.58236845403114667619e-06
1.37500000000000011102e-01  3.74999999999999986122e-02  4.92091485814257698084e-02  9.72610895086378768326e-07
1.49999999999999994449e-01  3.74999999999999986122e-02  5.33611556342610468540e-02  2.93824291605626619628e-07
1.62500000000000005551e-01  3.74999999999999986122e-02  5.74308238730394798877e-02  4.45195130184539156204e-07
1.74999999999999988898e-01  3.74999999999999986122e-02  6.14118847784994870143e-02  1.23669366869361141426e-06
1.87500000000000000000e-01  3.74999999999999986122e-02  6.52982055430996605194e-02  2.07375106879570392238e-06
2.00000000000000011102e-01  3.74999999999999986122e-02  6.90837986951029769944e-02  2.95012345281897570004e-06
2.12499999999999994449e-01  3.74999999999999986122e-02  7.27628314603573217445e-02  3.86012341502262046333e-06
2.25000000000000005551e-01  3.74999999999999986122e-02  7.63296348576388700158e-02  4.79852716288309277815e-06
2.37499999999999988898e-01  3.74999999999999986122e-02  7.97787125206989161663e-02  5.76050168296649012234e-06
2.50000000000000000000e-01  3.74999999999999986122e-02  8.31047492384952152245e-02  6.74154696024553690137e-06
2.62500000000000011102e-01  3.74999999999999986122e-02  8.63026192041005807409e-02  7.73744967833001062729e-06
2.75000000000000022204e-01  3.74999999999999986122e-02  8.93673939622601498645e-02  8.74424578151122844361e-06
2.87499999999999977796e-01  3.74999999999999986122e-02  9.22943500453346221679e-02  9.75818996469535182570e-06
2.99999999999999988898e-01  3.74999999999999986122e-02  9.50789762873668342635e-02  1.07757306265637842202e-05
3.12500000000000000000e-01  3.74999999999999986122e-02  9.77169808061423977863e-02  1.17934891760290705420e-05