Titile = 'Poisson'  
VARIABLES = X, Y, U, Error, Rank 
zone N= 1936, E = 3600
DATAPACKING=POINT, ZONETYPE=FETRIANGLE
0.00000000000000000000e+00  8.75000000000000000000e-01  0.00000000000000000000e+00  0.00000000000000000000e+00 7
8.33333333333333321769e-03  8.75000000000000000000e-01  9.98079589580688070205e-03  3.66885314935470885356e-05 7
1.66666666666666664354e-02  8.75000000000000000000e-01  1.99559344417544609618e-02  7.21689294044362827929e-05 7
2.50000000000000013878e-02  8.75000000000000000000e-01  2.99519945988842260787e-02  7.30014545086386801298e-05 7
3.33333333333333328707e-02  8.75000000000000000000e-01  3.99275271550532870335e-02  7.37839480605545494640e-05 7
4.16666666666666643537e-02  8.75000000000000000000e-01  4.98756953785326057060e-02  7.45158737822243510962e-05 7
5.00000000000000027756e-02  8.75000000000000000000e-01  5.97896812917474498872e-02  7.51967300447603514968e-05 7
5.83333333333333342585e-02  8.75000000000000000000e-01  6.96626903439643979654e-02  7.58260502264351821111e-05 7
6.66666666666666657415e-02  8.75000000000000000000e-01  7.94879560679543767376e-02  7.64034030150961829264e-05 7
7.49999999999999972244e-02  8.75000000000000000000e-01  8.92587447173589926264e-02  7.69283927361807950973e-05 7
8.33333333333333287074e-02  8.75000000000000000000e-01  9.89683598817120424584e-02  7.74006595756077109272e-05 7
9.16666666666666601904e-02  8.75000000000000000000e-01  1.08610147075783841641e-01  7.78198798674079039728e-05 7
1.00000000000000005551e-01  8.75000000000000000000e-01  1.18177498300243169482e-01  7.81857663053747709014e-05 7
1.08333333333333337034e-01  8.75000000000000000000e-01  1.27663856570477157737e-01  7.84980681127200874414e-05 7
1.16666666666666668517e-01  8.75000000000000000000e-01  1.37062720410349114797e-01  7.87565712857540844993e-05 7
1.25000000000000000000e-01  8.75000000000000000000e-01  1.46367648308104836286e-01  7.89610986214606125344e-05 7
1.33333333333333331483e-01  8.75000000000000000000e-01  1.55572263130932864073e-01  7.91115099688100009701e-05 7
1.41666666666666662966e-01  8.75000000000000000000e-01  1.64670256495624028892e-01  7.92077022338244507438e-05 7
1.49999999999999994449e-01  8.75000000000000000000e-01  1.73655393091957793716e-01  7.92496095144146206479e-05 7
1.58333333333333325932e-01  8.75000000000000000000e-01  1.82521514956166003296e-01  7.92372030520016590316e-05 7
1.66666666666666657415e-01  8.75000000000000000000e-01  1.91262545691145896543e-01  7.91704913990221026410e-05 7
1.74999999999999988898e-01  8.75000000000000000000e-01  1.99872494631147118449e-01  7.90495201852259299358e-05 7
1.83333333333333320381e-01  8.75000000000000000000e-01  2.08345460947104793581e-01  7.88743724561002945705e-05 7
1.91666666666666679619e-01  8.75000000000000000000e-01  2.16675637691286143705e-01  7.86451681032140914596e-05 7
2.00000000000000011102e-01  8.75000000000000000000e-01  2.24857315776518684736e-01  7.83620643452498377712e-05 7
2.08333333333333342585e-01  8.75000000000000000000e-01  2.32884887889473229938e-01  7.80252550609816797333e-05 7
2.16666666666666674068e-01  8.75000000000000000000e-01  2.40752852333054712108e-01  7.76349712376944722791e-05 7
2.25000000000000005551e-01  8.75000000000000000000e-01  2.48455816797565176568e-01  7.71914802382978049167e-05 7
2.33333333333333337034e-01  8.75000000000000000000e-01  2.55988502055830680071e-01  7.66950861110227144479e-05 7
2.41666666666666668517e-01  8.75000000000000000000e-01  2.63345745581785195544e-01  7.61461289156550868995e-05 7
2.50000000000000000000e-01  8.75000000000000000000e-01  2.70522505088072184876e-01  7.55449850263767430647e-05 7
2.58333333333333359239e-01  8.75000000000000000000e-01  2.77513861982245868543e-01  7.48920664045416017984e-05 7
2.66666666666666662966e-01  8.75000000000000000000e-01  2.84315024737643806674e-01  7.41878204010837372095e-05 7
2.75000000000000022204e-01  8.75000000000000000000e-01  2.90921332176855174101e-01  7.34327298551606943988e-05 7
2.83333333333333325932e-01  8.75000000000000000000e-01  2.97328256666791135299e-01  7.26273122302889539981e-05 7
2.91666666666666685170e-01  8.75000000000000000000e-01  3.03531407221674709440e-01  7.17721192843301381004e-05 7
2.99999999999999988898e-01  8.75000000000000000000e-01  3.09526532511543439607e-01  7.08677375500510464690e-05 7
3.08333333333333348136e-01  8.75000000000000000000e-01  3.15309523777447364701e-01  6.99147863850724249346e-05 7
3.16666666666666651864e-01  8.75000000000000000000e-01  3.20876417645522382660e-01  6.89139194117727171829e-05 7
3.25000000000000011102e-01  8.75000000000000000000e-01  3.26223398845480128116e-01  6.78658218782324240692e-05 7
3.33333333333333314830e-01  8.75000000000000000000e-01  3.31346802822765296170e-01  6.67712128265551818629e-05 7
3.41666666666666674068e-01  8.75000000000000000000e-01  3.36243118252659234368e-01  6.56308419995643710365e-05 7
3.49999999999999977796e-01  8.75000000000000000000e-01  3.40908989445037391430e-01  6.44454910556646609621e-05 7
3.58333333333333337034e-01  8.75000000000000000000e-01  3.45341218644807212979e-01  6.32159724180403337357e-05 7
3.66666666666666640761e-01  8.75000000000000000000e-01  3.49536768223478011564e-01  6.19431287293137344818e-05 7
3.75000000000000000000e-01  8.75000000000000000000e-01  3.53492762760936107824e-01  6.06278323377340555567e-05 7
3.83333333333333359239e-01  8.75000000000000000000e-01  3.57206491016287375206e-01  5.92709845262939793997e-05 7
3.91666666666666662966e-01  8.75000000000000000000e-01  3.60675407785397583726e-01  5.78735155035703385806e-05 7
4.00000000000000022204e-01  8.75000000000000000000e-01  3.63897135646252034569e-01  5.64363827623703961933e-05 7
4.08333333333333325932e-01  8.75000000000000000000e-01  3.66869466587331383156e-01  5.49605714141865320244e-05 7
4.16666666666666685170e-01  8.75000000000000000000e-01  3.69590363521658138435e-01  5.34470927280872309950e-05 7
4.24999999999999988898e-01  8.75000000000000000000e-01  3.72057961682140336812e-01  5.18969842117633639589e-05 7
4.33333333333333348136e-01  8.75000000000000000000e-01  3.74270569900576777211e-01  5.03113079134975826889e-05 7
4.41666666666666651864e-01  8.75000000000000000000e-01  3.76226671765319931051e-01  4.86911510733656349714e-05 7
4.50000000000000011102e-01  8.75000000000000000000e-01  3.77924926662588978044e-01  4.70376233382974184849e-05 7
4.58333333333333314830e-01  8.75000000000000000000e-01  3.79364170692584212752e-01  4.53518586762680087077e-05 7
4.66666666666666674068e-01  8.75000000000000000000e-01  3.80543417469737688119e-01  4.36350120279205277996e-05 7
4.74999999999999977796e-01  8.75000000000000000000e-01  3.81461858797170927371e-01  4.18882600762837675745e-05 7
4.83333333333333337034e-01  8.75000000000000000000e-01  3.82118865221068637616e-01  4.01127999645201072099e-05 7
4.91666666666666640761e-01  8.75000000000000000000e-01  3.82513986461838262354e-01  3.83098487121147357470e-05 7
5.00000000000000000000e-01  8.75000000000000000000e-01  3.82646951723401407275e-01  3.64806416884855266858e-05 7
5.08333333333333303727e-01  8.75000000000000000000e-01  3.82517669877941890455e-01  3.46264326084866347344e-05 7
5.16666666666666718477e-01  8.75000000000000000000e-01  3.82126229528623129195e-01  3.27484924100285290649e-05 7
5.25000000000000022204e-01  8.75000000000000000000e-01  3.81472898949238581334e-01  3.08481080086298042886e-05 7
5.33333333333333325932e-01  8.75000000000000000000e-01  3.80558125899977894857e-01  2.89265817877693010018e-05 7
5.41666666666666629659e-01  8.75000000000000000000e-01  3.79382537320469448439e-01  2.69852307910878330688e-05 7
5.50000000000000044409e-01  8.75000000000000000000e-01  3.77946938900417639395e-01  2.50253855095805555209e-05 7
5.58333333333333348136e-01  8.75000000000000000000e-01  3.76252314527473430417e-01  2.30483889199217806265e-05 7
5.66666666666666651864e-01  8.75000000000000000000e-01  3.74299825612219694282e-01  2.10555962705805121971e-05 7
5.74999999999999955591e-01  8.75000000000000000000e-01  3.72090810293190188407e-01  1.90483731619672802537e-05 7
5.83333333333333370341e-01  8.75000000000000000000e-01  3.69626782519277219397e-01  1.70280951090062693254e-05 7
5.91666666666666674068e-01  8.75000000000000000000e-01  3.66909431011861020266e-01  1.49961468845494216851e-05 7
5.99999999999999977796e-01  8.75000000000000000000e-01  3.63940618107724933594e-01  1.29539212895268818215e-05 7
6.08333333333333281523e-01  8.75000000000000000000e-01  3.60722378483376904246e-01  1.09028175242498193143e-05 7
6.16666666666666696273e-01  8.75000000000000000000e-01  3.57256917759497083509e-01  8.84424131658567702630e-06 7
6.25000000000000000000e-01  8.75000000000000000000e-01  3.53546610989211917975e-01  6.77960406192390507840e-06 7
6.33333333333333303727e-01  8.75000000000000000000e-01  3.49594001031932222201e-01  4.71032027515860818312e-06 7
6.41666666666666718477e-01  8.75000000000000000000e-01  3.45401796808904038016e-01  2.63780832121529584811e-06 7
6.50000000000000022204e-01  8.75000000000000000000e-01  3.40972871447694336755e-01  5.63488398774847354389e-07 7
6.58333333333333325932e-01  8.75000000000000000000e-01  3.36310260312312703235e-01  1.51121765390449525057e-06 7
6.66666666666666629659e-01  8.75000000000000000000e-01  3.31417158923416832472e-01  3.58488782492560886794e-06 7
6.75000000000000044409e-01  8.75000000000000000000e-01  3.26296920768739728835e-01  5.65610138131278361584e-06 7
6.83333333333333348136e-01  8.75000000000000000000e-01  3.20953055003365239628e-01  7.72343843108425076593e-06 7
6.91666666666666651864e-01  8.75000000000000000000e-01  3.15389224045761085158e-01  9.78548192859252097264e-06 7
6.99999999999999955591e-01  8.75000000000000000000e-01  3.09609241068628249227e-01  1.18408195347585731838e-05 7
7.08333333333333370341e-01  8.75000000000000000000e-01  3.03617067382266958564e-01  1.38880413079189857228e-05 7
7.16666666666666674068e-01  8.75000000000000000000e-01  2.97416809724615649468e-01  1.59257455941141934375e-05 7
7.24999999999999977796e-01  8.75000000000000000000e-01  2.91012717441387847028e-01  1.79525346775122329745e-05 7
7.33333333333333281523e-01  8.75000000000000000000e-01  2.84409179578247461873e-01  1.99670202024604392932e-05 7
7.41666666666666696273e-01  8.75000000000000000000e-01  2.77610721869992860267e-01  2.19678213425056334529e-05 7
7.50000000000000000000e-01  8.75000000000000000000e-01  2.70622003639988450985e-01  2.39535668898338549582e-05 7
7.58333333333333303727e-01  8.75000000000000000000e-01  2.63447814606324604014e-01  2.59228956236423613291e-05 7
7.66666666666666718477e-01  8.75000000000000000000e-01  2.56093071600231869667e-01  2.78744582902223925203e-05 7
7.75000000000000022204e-01  8.75000000000000000000e-01  2.48562815195102232435e-01  2.98069172987303065980e-05 7
7.83333333333333325932e-01  8.75000000000000000000e-01  2.40862206251981847416e-01  3.17189476894685906672e-05 7
7.91666666666666629659e-01  8.75000000000000000000e-01  2.32996522384625898150e-01  3.36092400916032651992e-05 7
8.00000000000000044409e-01  8.75000000000000000000e-01  2.24971154338714396381e-01  3.54764978504062966636e-05 7
8.08333333333333348136e-01  8.75000000000000000000e-01  2.16791602301628694160e-01  3.73194422393363645085e-05 7
8.16666666666666651864e-01  8.75000000000000000000e-01  2.08463472129030102931e-01  3.91368094690702772454e-05 7
8.24999999999999955591e-01  8.75000000000000000000e-01  1.99992471505648861108e-01  4.09273543164889730406e-05 7
8.33333333333333370341e-01  8.75000000000000000000e-01  1.91384406032247822438e-01  4.26898497029037926609e-05 7
8.41666666666666674068e-01  8.75000000000000000000e-01  1.82645175246818197712e-01  4.44230876001094898697e-05 7
8.49999999999999977796e-01  8.75000000000000000000e-01  1.73780768581434180708e-01  4.61258799619446158147e-05 7
8.58333333333333281523e-01  8.75000000000000000000e-01  1.64797261258010585561e-01  4.77970601525656846320e-05 7
8.66666666666666696273e-01  8.75000000000000000000e-01  1.55700810123431010457e-01  4.94354825293641386708e-05 7
8.75000000000000000000e-01  8.75000000000000000000e-01  1.46497649430980619867e-01  5.10400242542952131686e-05 7
8.83333333333333303727e-01  8.75000000000000000000e-01  1.37194086567406642319e-01  5.26095857716346593236e-05 7
8.91666666666666718477e-01  8.75000000000000000000e-01  1.27796497729883024030e-01  5.41430912932294727824e-05 7
9.00000000000000022204e-01  8.75000000000000000000e-01  1.18311323556358052866e-01  5.56394898094669798638e-05 7
9.08333333333333325932e-01  8.75000000000000000000e-01  1.08745064711474700991e-01  5.70977558234514459556e-05 7
9.16666666666666629659e-01  8.75000000000000000000e-01  9.91042774311553381628e-02  5.85168898675908488727e-05 7
9.25000000000000044409e-01  8.75000000000000000000e-01  8.93955690294916810457e-02  5.98959193964521130482e-05 7
9.33333333333333348136e-01  8.75000000000000000000e-01  7.96255933702162410626e-02  6.12338992467681419996e-05 7
9.41666666666666651864e-01  8.75000000000000000000e-01  6.98010463065758673951e-02  6.25299123849371030204e-05 7
9.49999999999999955591e-01  8.75000000000000000000e-01  5.99286610925539309225e-02  6.37830707616790504311e-05 7
9.58333333333333370341e-01  8.75000000000000000000e-01  5.00152037675652902382e-02  6.49925152504601810755e-05 7
9.66666666666666674068e-01  8.75000000000000000000e-01  4.00674685203705818748e-02  6.61574172566292695308e-05 7
9.74999999999999977796e-01  8.75000000000000000000e-01  3.00922730315734444917e-02  6.72769781805311606337e-05 7
9.83333333333333281523e-01  8.75000000000000000000e-01  2.00964538020380750760e-02  6.83504308790147674380e-05 7
9.91666666666666696273e-01  8.75000000000000000000e-01  1.00522630550507145047e-02  3.47786277503508989284e-05 7
1.00000000000000000000e+00  8.75000000000000000000e-01  0.00000000000000000000e+00  4.68652040532629981719e-17 7
0.00000000000000000000e+00  8.83333333333333303727e-01  0.00000000000000000000e+00  0.00000000000000000000e+00 7
8.33333333333333321769e-03  8.83333333333333303727e-01  9.34397622730723416418e-03  3.70030631385940417255e-05 7
1.66666666666666664354e-02  8.83333333333333303727e-01  1.86827439707351397602e-02  7.27853555412168173877e-05 7
2.50000000000000013878e-02  8.83333333333333303727e-01  2.80436691957719544388e-02  7.35560633942956842990e-05 7
3.33333333333333328707e-02  8.83333333333333303727e-01  3.73853746907542514033e-02  7.42763595959969324944e-05 7
4.16666666666666643537e-02  8.83333333333333303727e-01  4.67014581173662776670e-02  7.49457504893788484246e-05 7
5.00000000000000027756e-02  8.83333333333333303727e-01  5.59855346973725728765e-02  7.55637773109801846871e-05 7
5.83333333333333342585e-02  8.83333333333333303727e-01  6.52312415884385293774e-02  7.61300164927314337859e-05 7
6.66666666666666657415e-02  8.83333333333333303727e-01  7.44322422448898957104e-02  7.66440799670198291693e-05 7
7.49999999999999972244e-02  8.83333333333333303727e-01  8.35822307604855430085e-02  7.71056154119098557942e-05 7
8.33333333333333287074e-02  8.83333333333333303727e-01  9.26749361901356566440e-02  7.75143065273875553345e-05 7
9.16666666666666601904e-02  8.83333333333333303727e-01  1.01704126847750084273e-01  7.78698731964261314786e-05 7
1.00000000000000005551e-01  8.83333333333333303727e-01  1.10663614577044683296e-01  7.81720717569212020237e-05 7
1.08333333333333337034e-01  8.83333333333333303727e-01  1.19547258992684812817e-01  7.84206950784904766039e-05 7
1.16666666666666668517e-01  8.83333333333333303727e-01  1.28348971688530932855e-01  7.86155727720838637396e-05 7
1.25000000000000000000e-01  8.83333333333333303727e-01  1.37062720410356442269e-01  7.87565712785376348393e-05 7
1.33333333333333331483e-01  8.83333333333333303727e-01  1.45682533190038571158e-01  7.88435939747533787170e-05 7
1.41666666666666662966e-01  8.83333333333333303727e-01  1.54202502438489486014e-01  7.88765811976510633485e-05 7
1.49999999999999994449e-01  8.83333333333333303727e-01  1.62616788994350974784e-01  7.88555103567456505687e-05 7
1.58333333333333325932e-01  8.83333333333333303727e-01  1.70919626125920459669e-01  7.87803958930965997354e-05 7
1.66666666666666657415e-01  8.83333333333333303727e-01  1.79105323483385536765e-01  7.86512892647639461075e-05 7
1.74999999999999988898e-01  8.83333333333333303727e-01  1.87168270998615604572e-01  7.84682790015422959584e-05 7
1.83333333333333320381e-01  8.83333333333333303727e-01  1.95102942730210920930e-01  7.82314904554937129433e-05 7
1.91666666666666679619e-01  8.83333333333333303727e-01  2.02903900650428070662e-01  7.79410859940432576565e-05 7
2.00000000000000011102e-01  8.83333333333333303727e-01  2.10565798372460005750e-01  7.75972645608302702414e-05 7
2.08333333333333342585e-01  8.83333333333333303727e-01  2.18083384814209052527e-01  7.72002619132683420844e-05 7
2.16666666666666674068e-01  8.83333333333333303727e-01  2.25451507797589018045e-01  7.67503499880251016663e-05 7
2.25000000000000005551e-01  8.83333333333333303727e-01  2.32665117579038738249e-01  7.62478372464958642496e-05 7
2.33333333333333337034e-01  8.83333333333333303727e-01  2.39719270310811555236e-01  7.56930680161915780957e-05 7
2.41666666666666668517e-01  8.83333333333333303727e-01  2.46609131428911443340e-01  7.50864225846081811966e-05 7
2.50000000000000000000e-01  8.83333333333333303727e-01  2.53329978966775282156e-01  7.44283166252968086951e-05 7
2.58333333333333359239e-01  8.83333333333333303727e-01  2.59877206791154169441e-01  7.37192012315035505310e-05 7
2.66666666666666662966e-01  8.83333333333333303727e-01  2.66246327759141476754e-01  7.29595623925605174520e-05 7
2.75000000000000022204e-01  8.83333333333333303727e-01  2.72432976793388570425e-01  7.21499207089748573196e-05 7
2.83333333333333325932e-01  8.83333333333333303727e-01  2.78432913873720044862e-01  7.12908310258053568020e-05 7
2.91666666666666685170e-01  8.83333333333333303727e-01  2.84242026942794046018e-01  7.03828822910534945834e-05 7
2.99999999999999988898e-01  8.83333333333333303727e-01  2.89856334725019981757e-01  6.94266964319512069892e-05 7
3.08333333333333348136e-01  8.83333333333333303727e-01  2.95271989453757377486e-01  6.84229292980953474057e-05 7
3.16666666666666651864e-01  8.83333333333333303727e-01  3.00485279510504077471e-01  6.73722680902821835502e-05 7
3.25000000000000011102e-01  8.83333333333333303727e-01  3.05492631965847860620e-01  6.62754336963056189802e-05 7
3.33333333333333314830e-01  8.83333333333333303727e-01  3.10290615031157401837e-01  6.51331772129060126986e-05 7
3.41666666666666674068e-01  8.83333333333333303727e-01  3.14875940408301857598e-01  6.39462816881541940006e-05 7
3.49999999999999977796e-01  8.83333333333333303727e-01  3.19245465544129025659e-01  6.27155607416662874698e-05 7
3.58333333333333337034e-01  8.83333333333333303727e-01  3.23396195784690199115e-01  6.14418575314856774128e-05 7
3.66666666666666640761e-01  8.83333333333333303727e-01  3.27325286426601025358e-01  6.01260452011698198760e-05 7
3.75000000000000000000e-01  8.83333333333333303727e-01  3.31030044667506850864e-01  5.87690254338912865251e-05 7
3.83333333333333359239e-01  8.83333333333333303727e-01  3.34507931450967188614e-01  5.73717284622632384128e-05 7
3.91666666666666662966e-01  8.83333333333333303727e-01  3.37756563207533666571e-01  5.59351114950978889340e-05 7
4.00000000000000022204e-01  8.83333333333333303727e-01  3.40773713486688389906e-01  5.44601597026184158779e-05 7
4.08333333333333325932e-01  8.83333333333333303727e-01  3.43557314484864595450e-01  5.29478834185859170702e-05 7
4.16666666666666685170e-01  8.83333333333333303727e-01  3.46105458460631232320e-01  5.13993194324324775835e-05 7
4.24999999999999988898e-01  8.83333333333333303727e-01  3.48416399043608215891e-01  4.98155288343737900902e-05 7
4.33333333333333348136e-01  8.83333333333333303727e-01  3.50488552430427757756e-01  4.81975972015935560933e-05 7
4.41666666666666651864e-01  8.83333333333333303727e-01  3.52320498470751863884e-01  4.65466332966180118547e-05 7
4.50000000000000011102e-01  8.83333333333333303727e-01  3.53910981640137400905e-01  4.48637687426867159957e-05 7
4.58333333333333314830e-01  8.83333333333333303727e-01  3.55258911901037977010e-01  4.31501567192960067132e-05 7
4.66666666666666674068e-01  8.83333333333333303727e-01  3.56363365449315350197e-01  4.14069717187826036309e-05 7
4.74999999999999977796e-01  8.83333333333333303727e-01  3.57223585347544281277e-01  3.96354085649974763328e-05 7
4.83333333333333337034e-01  8.83333333333333303727e-01  3.57838982044127562610e-01  3.78366812466279789362e-05 7
4.91666666666666640761e-01  8.83333333333333303727e-01  3.58209133777023014389e-01  3.60120224077165040910e-05 7
5.00000000000000000000e-01  8.83333333333333303727e-01  3.58333786862313763422e-01  3.41626829868935111278e-05 7
5.08333333333333303727e-01  8.83333333333333303727e-01  3.58212855869510182760e-01  3.22899299205481327135e-05 7
5.16666666666666718477e-01  8.83333333333333303727e-01  3.57846423678269631719e-01  3.03950471045588699326e-05 7
5.25000000000000022204e-01  8.83333333333333303727e-01  3.57234741423153090434e-01  2.84793329561883190593e-05 7
5.33333333333333325932e-01  8.83333333333333303727e-01  3.56378228320442191901e-01  2.65441005919964112536e-05 7
5.41666666666666629659e-01  8.83333333333333303727e-01  3.55277471381633180858e-01  2.45906761241476701230e-05 7
5.50000000000000044409e-01  8.83333333333333303727e-01  3.53933225010465812854e-01  2.26203984142192560114e-05 7
5.58333333333333348136e-01  8.83333333333333303727e-01  3.52346410486004291140e-01  2.06346180442462667770e-05 7
5.66666666666666651864e-01  8.83333333333333303727e-01  3.50518115332196400491e-01  1.86346954329508207593e-05 7
5.74999999999999955591e-01  8.83333333333333303727e-01  3.48449592570802602065e-01  1.66220016399876158175e-05 7
5.83333333333333370341e-01  8.83333333333333303727e-01  3.46142259863878865023e-01  1.45979161847997751522e-05 7
5.91666666666666674068e-01  8.83333333333333303727e-01  3.43597698542581375669e-01  1.25638257018056975767e-05 7
5.99999999999999977796e-01  8.83333333333333303727e-01  3.40817652521725633630e-01  1.05211246653746925972e-05 7
6.08333333333333281523e-01  8.83333333333333303727e-01  3.37804027105879811632e-01  8.47121314895282750967e-06 7
6.16666666666666696273e-01  8.83333333333333303727e-01  3.34558887683516659184e-01  6.41549591279266806509e-06 7
6.25000000000000000000e-01  8.83333333333333303727e-01  3.31084458311404428166e-01  4.35538153631398472498e-06 7
6.33333333333333303727e-01  8.83333333333333303727e-01  3.27383120189327525562e-01  2.29228247472512691729e-06 7
6.41666666666666718477e-01  8.83333333333333303727e-01  3.23457410030154435265e-01  2.27612067249527427748e-07 7
6.50000000000000022204e-01  8.83333333333333303727e-01  3.19310018318682831140e-01  1.83721381208368228499e-06 7
6.58333333333333325932e-01  8.83333333333333303727e-01  3.14943787471105240972e-01  3.90078111522917936327e-06 7
6.66666666666666629659e-01  8.83333333333333303727e-01  3.10361709883098468854e-01  5.96167472810549270434e-06 7
6.75000000000000044409e-01  8.83333333333333303727e-01  3.05566925881934459142e-01  8.01848239023739139952e-06 7
6.83333333333333348136e-01  8.83333333333333303727e-01  3.00562721573463698110e-01  1.00697948693384553565e-05 7
6.91666666666666651864e-01  8.83333333333333303727e-01  2.95352526589010289104e-01  1.21142059548162706051e-05 7
6.99999999999999955591e-01  8.83333333333333303727e-01  2.89939911735789535019e-01  1.41503143376020545929e-05 7
7.08333333333333370341e-01  8.83333333333333303727e-01  2.84328586550185058446e-01  1.61767250999589329297e-05 7
7.16666666666666674068e-01  8.83333333333333303727e-01  2.78522396753556666926e-01  1.81920488107056854687e-05 7
7.24999999999999977796e-01  8.83333333333333303727e-01  2.72525321619050686639e-01  2.01949049531413571401e-05 7
7.33333333333333281523e-01  8.83333333333333303727e-01  2.66341471241947236326e-01  2.21839204130880318644e-05 7
7.41666666666666696273e-01  8.83333333333333303727e-01  2.59975083724245936700e-01  2.41577318602637092226e-05 7
7.50000000000000000000e-01  8.83333333333333303727e-01  2.53430522270586155997e-01  2.61149871855215209848e-05 7
7.58333333333333303727e-01  8.83333333333333303727e-01  2.46712272195959092524e-01  2.80543444629299809634e-05 7
7.66666666666666718477e-01  8.83333333333333303727e-01  2.39824937853257175169e-01  2.99744744295116216648e-05 7
7.75000000000000022204e-01  8.83333333333333303727e-01  2.32773239477986670920e-01  3.18740617013812954639e-05 7
7.83333333333333325932e-01  8.83333333333333303727e-01  2.25562009951717240552e-01  3.37518041402251611771e-05 7
7.91666666666666629659e-01  8.83333333333333303727e-01  2.18196191490637098065e-01  3.56064145146939292630e-05 7
8.00000000000000044409e-01  8.83333333333333303727e-01  2.10680832259283884467e-01  3.74366222630206912925e-05 7
8.08333333333333348136e-01  8.83333333333333303727e-01  2.03021082908988376170e-01  3.92411725662622501432e-05 7
8.16666666666666651864e-01  8.83333333333333303727e-01  1.95222193049832737355e-01  4.10188291661839343760e-05 7
8.24999999999999955591e-01  8.83333333333333303727e-01  1.87289507651034248248e-01  4.27683734170458684787e-05 7
8.33333333333333370341e-01  8.83333333333333303727e-01  1.79228463378967278752e-01  4.44886063169780410220e-05 7
8.41666666666666674068e-01  8.83333333333333303727e-01  1.71044584870846949620e-01  4.61783490333100843372e-05 7
8.49999999999999977796e-01  8.83333333333333303727e-01  1.62743480948161184374e-01  4.78364434534361837592e-05 7
8.58333333333333281523e-01  8.83333333333333303727e-01  1.54330840772624183765e-01  4.94617529368801545075e-05 7
8.66666666666666696273e-01  8.83333333333333303727e-01  1.45812429948063926322e-01  5.10531640506572959026e-05 7
8.75000000000000000000e-01  8.83333333333333303727e-01  1.37194086567406642319e-01  5.26095857716346593236e-05 7
8.83333333333333303727e-01  8.83333333333333303727e-01  1.28481717212887536217e-01  5.41299515843807199644e-05 7
8.91666666666666718477e-01  8.83333333333333303727e-01  1.19681292907047390206e-01  5.56132192841563011143e-05 7
9.00000000000000022204e-01  8.83333333333333303727e-01  1.10798845021332775795e-01  5.70583725311296641181e-05 7
9.08333333333333325932e-01  8.83333333333333303727e-01  1.01840461141834176528e-01  5.84644208876661242158e-05 7
9.16666666666666629659e-01  8.83333333333333303727e-01  9.28122808972554197426e-02  5.98304005922783987970e-05 7
9.25000000000000044409e-01  8.83333333333333303727e-01  8.37204917514109275833e-02  6.11553755134192078557e-05 7
9.33333333333333348136e-01  8.83333333333333303727e-01  7.45713247624933683877e-02  6.24384376364528481673e-05 7
9.41666666666666651864e-01  8.83333333333333303727e-01  6.53710503125110309330e-02  6.36787075796868551336e-05 7
9.49999999999999955591e-01  8.83333333333333303727e-01  5.61259738099021965319e-02  6.48753352186018372727e-05 7
9.58333333333333370341e-01  8.83333333333333303727e-01  4.68424313685375931504e-02  6.60275006819366350186e-05 7
9.66666666666666674068e-01  8.83333333333333303727e-01  3.75267854644332765623e-02  6.71344140829310820351e-05 7
9.74999999999999977796e-01  8.83333333333333303727e-01  2.81854205761524270746e-02  6.81953169861318486689e-05 7
9.83333333333333281523e-01  8.83333333333333303727e-01  1.88247388084631997462e-02  6.92094821866905129948e-05 7
9.91666666666666696273e-01  8.83333333333333303727e-01  9.41619380400722690017e-03  3.52145135614594095852e-05 7
1.00000000000000000000e+00  8.83333333333333303727e-01  0.00000000000000000000e+00  4.38874162327652625238e-17 7
0.00000000000000000000e+00  8.91666666666666718477e-01  0.00000000000000000000e+00  0.00000000000000000000e+00 7
8.33333333333333321769e-03  8.91666666666666718477e-01  8.70075266424369039853e-03  3.72922347322141023440e-05 7
1.66666666666666664354e-02  8.91666666666666718477e-01  1.73967492802218487435e-02  7.33518982312872380724e-05 7
2.50000000000000013878e-02  8.91666666666666718477e-01  2.61161240626053212099e-02  7.40602606283599640413e-05 7
3.33333333333333328707e-02  8.91666666666666718477e-01  3.48176001580850491557e-02  7.47178658229222247833e-05 7
4.16666666666666643537e-02  8.91666666666666718477e-01  4.34952140095940451014e-02  7.53242631248082772366e-05 7
5.00000000000000027756e-02  8.91666666666666718477e-01  5.21430184140552824279e-02  7.58790369392928210068e-05 7
5.83333333333333342585e-02  8.91666666666666718477e-01  6.07550865983008184235e-02  7.63818070486921296691e-05 7
6.66666666666666657415e-02  8.91666666666666718477e-01  6.93255162809690295145e-02  7.68322288900169514392e-05 7
7.49999999999999972244e-02  8.91666666666666718477e-01  7.78484337176695018190e-02  7.72299937551040871497e-05 7
8.33333333333333287074e-02  8.91666666666666718477e-01  8.63179977265222247995e-02  7.75748290338801327337e-05 7
9.16666666666666601904e-02  8.91666666666666718477e-01  9.47284036913982468997e-02  7.78664984149163297289e-05 7
1.00000000000000005551e-01  8.91666666666666718477e-01  1.03073887540193087631e-01  7.81048019679042582197e-05 7
1.08333333333333337034e-01  8.91666666666666718477e-01  1.11348729695099929460e-01  7.82895764145780104215e-05 7
1.16666666666666668517e-01  8.91666666666666718477e-01  1.19547258992687255308e-01  7.84206950758398191326e-05 7
1.25000000000000000000e-01  8.91666666666666718477e-01  1.27663856570473799312e-01  7.84980681159397342128e-05 7
1.33333333333333331483e-01  8.91666666666666718477e-01  1.35692959717914674034e-01  7.85216425054080513490e-05 7
1.41666666666666662966e-01  8.91666666666666718477e-01  1.43629065688767376674e-01  7.84914020954263769170e-05 7
1.49999999999999994449e-01  8.91666666666666718477e-01  1.51466735472462171730e-01  7.84073675659524571557e-05 7
1.58333333333333325932e-01  8.91666666666666718477e-01  1.59200597521573672388e-01  7.82695965659829795413e-05 7
1.66666666666666657415e-01  8.91666666666666718477e-01  1.66825351433375235199e-01  7.80781835101052035242e-05 7
1.74999999999999988898e-01  8.91666666666666718477e-01  1.74335771582478676889e-01  7.78332595053055076306e-05 7