Titile = 'Poisson'  
VARIABLES = X, Y, U, Error, Rank 
zone N= 1936, E = 3600
DATAPACKING=POINT, ZONETYPE=FETRIANGLE
0.00000000000000000000e+00  6.25000000000000000000e-01  0.00000000000000000000e+00  0.00000000000000000000e+00 5
8.33333333333333321769e-03  6.25000000000000000000e-01  2.41672399741793414440e-02  1.71067910706215742245e-05 5
1.66666666666666664354e-02  6.25000000000000000000e-01  4.83184069393866252873e-02  3.37118478754769301808e-05 5
2.50000000000000013878e-02  6.25000000000000000000e-01  7.24507900134554599925e-02  3.59626688442166164705e-05 5
3.33333333333333328707e-02  6.25000000000000000000e-01  9.65335189350441658096e-02  3.81888427987142620168e-05 5
4.16666666666666643537e-02  6.25000000000000000000e-01  1.20550088604710073370e-01  4.03888440295291362148e-05 5
5.00000000000000027756e-02  6.25000000000000000000e-01  1.44484039265258906726e-01  4.25611647628110212338e-05 5
5.83333333333333342585e-02  6.25000000000000000000e-01  1.68318967782438655423e-01  4.47043161952154211036e-05 5
6.66666666666666657415e-02  6.25000000000000000000e-01  1.92038538886814935669e-01  4.68168295277293644574e-05 5
7.49999999999999972244e-02  6.25000000000000000000e-01  2.15626496369178716206e-01  4.88972569424039882335e-05 5
8.33333333333333287074e-02  6.25000000000000000000e-01  2.39066674221721453542e-01  5.09441726130321903554e-05 5
9.16666666666666601904e-02  6.25000000000000000000e-01  2.62343007717375342747e-01  5.29561737166450718917e-05 5
1.00000000000000005551e-01  6.25000000000000000000e-01  2.85439544419919588591e-01  5.49318812497201491851e-05 5
1.08333333333333337034e-01  6.25000000000000000000e-01  3.08340455116660583368e-01  5.68699412966111594869e-05 5
1.16666666666666668517e-01  6.25000000000000000000e-01  3.31030044667481482268e-01  5.87690254589268157304e-05 5
1.25000000000000000000e-01  6.25000000000000000000e-01  3.53492762760989620574e-01  6.06278322841657946185e-05 5
1.33333333333333331483e-01  6.25000000000000000000e-01  3.75713214572218956455e-01  6.24450878614069004868e-05 5
1.41666666666666662966e-01  6.25000000000000000000e-01  3.97676171313552373476e-01  6.42195466166173289935e-05 5
1.49999999999999994449e-01  6.25000000000000000000e-01  4.19366580671355348997e-01  6.59499925825257626855e-05 5
1.58333333333333325932e-01  6.25000000000000000000e-01  4.40769577122677225223e-01  6.76352396349333417902e-05 5
1.66666666666666657415e-01  6.25000000000000000000e-01  4.61870492122684106473e-01  6.92741329592072574428e-05 5
1.74999999999999988898e-01  6.25000000000000000000e-01  4.82654864158394980578e-01  7.08655491941101445263e-05 5
1.83333333333333320381e-01  6.25000000000000000000e-01  5.03108448659338347575e-01  7.24083977431400072078e-05 5
1.91666666666666679619e-01  6.25000000000000000000e-01  5.23217227760386927038e-01  7.39016212047971521315e-05 5
2.00000000000000011102e-01  6.25000000000000000000e-01  5.42967419908852333421e-01  7.53441961465206588855e-05 5
2.08333333333333342585e-01  6.25000000000000000000e-01  5.62345489309514112719e-01  7.67351339655553132957e-05 5
2.16666666666666674068e-01  6.25000000000000000000e-01  5.81338155201583939302e-01  7.80734813601302590769e-05 5
2.25000000000000005551e-01  6.25000000000000000000e-01  5.99932400960534795153e-01  7.93583211228243712299e-05 5
2.33333333333333337034e-01  6.25000000000000000000e-01  6.18115483019184619451e-01  8.05887726311738106233e-05 5
2.41666666666666668517e-01  6.25000000000000000000e-01  6.35874939601400734901e-01  8.17639925497770647667e-05 5
2.50000000000000000000e-01  6.25000000000000000000e-01  6.53198599262494794537e-01  8.28831756933823271538e-05 5
2.58333333333333359239e-01  6.25000000000000000000e-01  6.70074589231940964673e-01  8.39455545600387154082e-05 5
2.66666666666666662966e-01  6.25000000000000000000e-01  6.86491343548610966074e-01  8.49504016257052185779e-05 5
2.75000000000000022204e-01  6.25000000000000000000e-01  7.02437610989582905674e-01  8.58970277674009352609e-05 5
2.83333333333333325932e-01  6.25000000000000000000e-01  7.17902462779456573827e-01  8.67847844440161608759e-05 5
2.91666666666666685170e-01  6.25000000000000000000e-01  7.32875300081462732749e-01  8.76130630713678471011e-05 5
2.99999999999999988898e-01  6.25000000000000000000e-01  7.47345861260659938274e-01  8.83812961528507301523e-05 5
3.08333333333333348136e-01  6.25000000000000000000e-01  7.61304228917333514204e-01  8.90889570828168331218e-05 5
3.16666666666666651864e-01  6.25000000000000000000e-01  7.74740836683351363767e-01  8.97355610421923799436e-05 5
3.25000000000000011102e-01  6.25000000000000000000e-01  7.87646475779377630566e-01  9.03206644277121384334e-05 5
3.33333333333333314830e-01  6.25000000000000000000e-01  8.00012301324469210506e-01  9.08438667962530033151e-05 5
3.41666666666666674068e-01  6.25000000000000000000e-01  8.11829838399816927641e-01  9.13048092384682874467e-05 5
3.49999999999999977796e-01  6.25000000000000000000e-01  8.23090987855701339271e-01  9.17031759544162383690e-05 5
3.58333333333333337034e-01  6.25000000000000000000e-01  8.33788031862957246254e-01  9.20386937587336362299e-05 5
3.66666666666666640761e-01  6.25000000000000000000e-01  8.43913639201641752052e-01  9.23111330138892682839e-05 5
3.75000000000000000000e-01  6.25000000000000000000e-01  8.53460870286503636706e-01  9.25203067700941517160e-05 5
3.83333333333333359239e-01  6.25000000000000000000e-01  8.62423181922367554364e-01  9.26660715548921487539e-05 5
3.91666666666666662966e-01  6.25000000000000000000e-01  8.70794431787841660686e-01  9.27483281424335004317e-05 5
4.00000000000000022204e-01  6.25000000000000000000e-01  8.78568882647594029400e-01  9.27670189854179483291e-05 5
4.08333333333333325932e-01  6.25000000000000000000e-01  8.85741206280162618469e-01  9.27221324594773577132e-05 5
4.16666666666666685170e-01  6.25000000000000000000e-01  8.92306487133849079996e-01  9.26136986737491341160e-05 5
4.24999999999999988898e-01  6.25000000000000000000e-01  8.98260225693246594503e-01  9.24417917959052815036e-05 5
4.33333333333333348136e-01  6.25000000000000000000e-01  9.03598341562441231822e-01  9.22065305438701798835e-05 5
4.41666666666666651864e-01  6.25000000000000000000e-01  9.08317176264689107867e-01  9.19080749256506734923e-05 5
4.50000000000000011102e-01  6.25000000000000000000e-01  9.12413495745399316661e-01  9.15466304851619838701e-05 5
4.58333333333333314830e-01  6.25000000000000000000e-01  9.15884492592226595598e-01  9.11224445268032923195e-05 5
4.66666666666666674068e-01  6.25000000000000000000e-01  9.18727787957722807910e-01  9.06358073563540145301e-05 5
4.74999999999999977796e-01  6.25000000000000000000e-01  9.20941433188089519923e-01  9.00870536711950720132e-05 5
4.83333333333333337034e-01  6.25000000000000000000e-01  9.22523911162768106564e-01  8.94765582513112889274e-05 5
4.91666666666666640761e-01  6.25000000000000000000e-01  9.23474137329682087660e-01  8.88047402192171375646e-05 5
5.00000000000000000000e-01  6.25000000000000000000e-01  9.23791460451389379038e-01  8.80720598973594448466e-05 5
5.08333333333333303727e-01  6.25000000000000000000e-01  9.23475663050475348292e-01  8.72790194259565055290e-05 5
5.16666666666666718477e-01  6.25000000000000000000e-01  9.22526961558778890726e-01  8.64261622405271268121e-05 5
5.25000000000000022204e-01  6.25000000000000000000e-01  9.20946006169103381644e-01  8.55140726573333509464e-05 5
5.33333333333333325932e-01  6.25000000000000000000e-01  9.18733880388637680348e-01  8.45433764415925992353e-05 5
5.41666666666666629659e-01  6.25000000000000000000e-01  9.15892100298664413316e-01  8.35147380890965962408e-05 5
5.50000000000000044409e-01  6.25000000000000000000e-01  9.12422613513125813078e-01  8.24288627585545441434e-05 5
5.58333333333333348136e-01  6.25000000000000000000e-01  9.08327797844186490828e-01  8.12864954283787355394e-05 5
5.66666666666666651864e-01  6.25000000000000000000e-01  9.03610459675336485930e-01  8.00884176486160725972e-05 5
5.74999999999999955591e-01  6.25000000000000000000e-01  8.98273832033142927145e-01  7.88354518996836617362e-05 5
5.83333333333333370341e-01  6.25000000000000000000e-01  8.92321572376709393204e-01  7.75284558134359258474e-05 5
5.91666666666666674068e-01  6.25000000000000000000e-01  8.85757760086861134496e-01  7.61683257609613306727e-05 5
5.99999999999999977796e-01  6.25000000000000000000e-01  8.78586893672761104490e-01  7.47559938184538808059e-05 5
6.08333333333333281523e-01  6.25000000000000000000e-01  8.70813887688215881866e-01  7.32924277682123204158e-05 5
6.16666666666666696273e-01  6.25000000000000000000e-01  8.62444069363208387635e-01  7.17786307140588775155e-05 5
6.25000000000000000000e-01  6.25000000000000000000e-01  8.53483174952926360035e-01  7.02156403473708223828e-05 5
6.33333333333333303727e-01  6.25000000000000000000e-01  8.43937345807120653518e-01  6.86045275349878025395e-05 5
6.41666666666666718477e-01  6.25000000000000000000e-01  8.33813124159968999116e-01  6.69463967469807741395e-05 5
6.50000000000000022204e-01  6.25000000000000000000e-01  8.23117448647690985730e-01  6.52423839648808012726e-05 5
6.58333333333333325932e-01  6.25000000000000000000e-01  8.11857649551461890702e-01  6.34936575935052260888e-05 5
6.66666666666666629659e-01  6.25000000000000000000e-01  8.00041443775507676861e-01  6.17014157578976707441e-05 5
6.75000000000000044409e-01  6.25000000000000000000e-01  7.87676929557181160213e-01  5.98668866242935138189e-05 5
6.83333333333333348136e-01  6.25000000000000000000e-01  7.74772580916235242832e-01  5.79913281583133155550e-05 5
6.91666666666666651864e-01  6.25000000000000000000e-01  7.61337241849581514153e-01  5.60760248349279066815e-05 5
6.99999999999999955591e-01  6.25000000000000000000e-01  7.47380120266457614875e-01  5.41222903551741296724e-05 5
7.08333333333333370341e-01  6.25000000000000000000e-01  7.32910781681870293625e-01  5.21314626638069711362e-05 5
7.16666666666666674068e-01  6.25000000000000000000e-01  7.17939142656978446233e-01  5.01049069223657994598e-05 5
7.24999999999999977796e-01  6.25000000000000000000e-01  7.02475464005566707648e-01  4.80440117835989610739e-05 5
7.33333333333333281523e-01  6.25000000000000000000e-01  6.86530343760668571029e-01  4.59501895684333305780e-05 5
7.41666666666666696273e-01  6.25000000000000000000e-01  6.70114709911135753018e-01  4.38248753651393485598e-05 5
7.50000000000000000000e-01  6.25000000000000000000e-01  6.53239812912186912364e-01  4.16695260013755230943e-05 5
7.58333333333333303727e-01  6.25000000000000000000e-01  6.35917217975640380878e-01  3.94856183104641544901e-05 5
7.66666666666666718477e-01  6.25000000000000000000e-01  6.18158797142689397930e-01  3.72746491261732870726e-05 5
7.75000000000000022204e-01  6.25000000000000000000e-01  5.99976721148087532853e-01  3.50381335701976937003e-05 5
7.83333333333333325932e-01  6.25000000000000000000e-01  5.81383451077866264534e-01  3.27776050776940053311e-05 5
7.91666666666666629659e-01  6.25000000000000000000e-01  5.62391729831301256937e-01  3.04946121786331403314e-05 5
8.00000000000000044409e-01  6.25000000000000000000e-01  5.43014573385324883503e-01  2.81907196740815990665e-05 5
8.08333333333333348136e-01  6.25000000000000000000e-01  5.23265261874648945906e-01  2.58675069427782844400e-05 5
8.16666666666666651864e-01  6.25000000000000000000e-01  5.03157330491437737585e-01  2.35265656439720416415e-05 5
8.24999999999999955591e-01  6.25000000000000000000e-01  4.82704560206986044157e-01  2.11695006031575871930e-05 5
8.33333333333333370341e-01  6.25000000000000000000e-01  4.61920968328779768530e-01  1.87979268635452001490e-05 5
8.41666666666666674068e-01  6.25000000000000000000e-01  4.40820798891973064659e-01  1.64134703393159497864e-05 5
8.49999999999999977796e-01  6.25000000000000000000e-01  4.19418512899563111773e-01  1.40177643748740088370e-05 5
8.58333333333333281523e-01  6.25000000000000000000e-01  3.97728778408854011239e-01  1.16124513153681441224e-05 5
8.66666666666666696273e-01  6.25000000000000000000e-01  3.75766460479775687986e-01  9.19918030456434721032e-06 5
8.75000000000000000000e-01  6.25000000000000000000e-01  3.53546610989212028997e-01  6.77960406181288277594e-06 5
8.83333333333333303727e-01  6.25000000000000000000e-01  3.31084458311404483677e-01  4.35538153625847357375e-06 5
8.91666666666666718477e-01  6.25000000000000000000e-01  3.08395396883754502326e-01  1.92817420252566762429e-06 5
9.00000000000000022204e-01  6.25000000000000000000e-01  2.85494976656018750738e-01  5.00354849330975071098e-07 5
9.08333333333333325932e-01  6.25000000000000000000e-01  2.62398892431876584741e-01  2.92854078459692246383e-06 5
9.16666666666666629659e-01  6.25000000000000000000e-01  2.39122973114095693781e-01  5.35471976093049306655e-06 5
9.25000000000000044409e-01  6.25000000000000000000e-01  2.15683170854847255926e-01  7.77722872602470971515e-06 5
9.33333333333333348136e-01  6.25000000000000000000e-01  1.92095550124096459133e-01  1.01944077537940991363e-05 5
9.41666666666666651864e-01  6.25000000000000000000e-01  1.68376276698670668264e-01  1.26046000365476196237e-05 5
9.49999999999999955591e-01  6.25000000000000000000e-01  1.44541606583595355628e-01  1.50061535735268591907e-05 5
9.58333333333333370341e-01  6.25000000000000000000e-01  1.20607874871497891545e-01  1.73974227582890383914e-05 5
9.66666666666666674068e-01  6.25000000000000000000e-01  9.65914845465169064065e-02  1.97767686737626569027e-05 5
9.74999999999999977796e-01  6.25000000000000000000e-01  7.25088952427716121329e-02  2.21425604718106239233e-05 5
9.83333333333333281523e-01  6.25000000000000000000e-01  4.83766119642072972562e-02  2.44931769448064606820e-05 5
9.91666666666666696273e-01  6.25000000000000000000e-01  2.41968426407818577861e-02  1.24958755320508929643e-05 5
1.00000000000000000000e+00  6.25000000000000000000e-01  0.00000000000000000000e+00  1.13142611228770026067e-16 5
0.00000000000000000000e+00  6.33333333333333303727e-01  0.00000000000000000000e+00  0.00000000000000000000e+00 5
8.33333333333333321769e-03  6.33333333333333303727e-01  2.38958208942606428749e-02  1.80113273420406949654e-05 5
1.66666666666666664354e-02  6.33333333333333303727e-01  4.77757855957614899212e-02  3.54895013617712029586e-05 5
2.50000000000000013878e-02  6.33333333333333303727e-01  7.16382390616008002393e-02  3.77114513179510613128e-05 5
3.33333333333333328707e-02  6.33333333333333303727e-01  9.54515952567983189114e-02  3.99075557279693349244e-05 5
4.16666666666666643537e-02  6.33333333333333303727e-01  1.19199533696518700232e-01  4.20763094944182070023e-05 5
5.00000000000000027756e-02  6.33333333333333303727e-01  1.42865778729997172647e-01  4.42162262559997465416e-05 5
5.83333333333333342585e-02  6.33333333333333303727e-01  1.66434110695030695881e-01  4.63258394330368084013e-05 5
6.66666666666666657415e-02  6.33333333333333303727e-01  1.89888377034175076519e-01  4.84037031818207452716e-05 5
7.49999999999999972244e-02  6.33333333333333303727e-01  2.13212503364823807717e-01  5.04483934627708574538e-05 5
8.33333333333333287074e-02  6.33333333333333303727e-01  2.36390504495876563329e-01  5.24585089267393112067e-05 5
9.16666666666666601904e-02  6.33333333333333303727e-01  2.59406495383120216935e-01  5.44326719458254615347e-05 5
1.00000000000000005551e-01  6.33333333333333303727e-01  2.82244702016039183956e-01  5.63695295631716497553e-05 5
1.08333333333333337034e-01  6.33333333333333303727e-01  3.04889472228706048806e-01  5.82677542484977273318e-05 5
1.16666666666666668517e-01  6.33333333333333303727e-01  3.27325286426596417932e-01  6.01260452054441785208e-05 5
1.25000000000000000000e-01  6.33333333333333303727e-01  3.49536768223468130579e-01  6.19431287391392082498e-05 5
1.33333333333333331483e-01  6.33333333333333303727e-01  3.71508694979180653650e-01  6.37177595164684085205e-05 5
1.41666666666666662966e-01  6.33333333333333303727e-01  3.93226008232565038547e-01  6.54487213869736628169e-05 5
1.49999999999999994449e-01  6.33333333333333303727e-01  4.14673824022059600569e-01  6.71348278977745849261e-05 5
1.58333333333333325932e-01  6.33333333333333303727e-01  4.35837443085897446871e-01  6.87749236426560273117e-05 5
1.66666666666666657415e-01  6.33333333333333303727e-01  4.56702360936892315380e-01  7.03678844081179200032e-05 5
1.74999999999999988898e-01  6.33333333333333303727e-01  4.77254277802431847721e-01  7.19126186017882140789e-05 5
1.83333333333333320381e-01  6.33333333333333303727e-01  4.97479108425415483818e-01  7.34080674119064191530e-05 5
1.91666666666666679619e-01  6.33333333333333303727e-01  5.17362991717045916928e-01  7.48532060739215410194e-05 5
2.00000000000000011102e-01  6.33333333333333303727e-01  5.36892300257054477797e-01  7.62470440445195407619e-05 5
2.08333333333333342585e-01  6.33333333333333303727e-01  5.56053649632788138391e-01  7.75886261473734961669e-05 5
2.16666666666666674068e-01  6.33333333333333303727e-01  5.74833907612695815814e-01  7.88770327485588396144e-05 5
2.25000000000000005551e-01  6.33333333333333303727e-01  5.93220203145757851715e-01  8.01113811338405312767e-05 5
2.33333333333333337034e-01  6.33333333333333303727e-01  6.11199935183711406950e-01  8.12908250628074924293e-05 5
2.41666666666666668517e-01  6.33333333333333303727e-01  6.28760781316098360527e-01  8.24145564304323841043e-05 5
2.50000000000000000000e-01  6.33333333333333303727e-01  6.45890706216446619514e-01  8.34818048044416727294e-05 5
2.58333333333333359239e-01  6.33333333333333303727e-01  6.62577969889428630701e-01  8.44918392055582501143e-05 5
2.66666666666666662966e-01  6.33333333333333303727e-01  6.78811135718672020722e-01  8.54439668048767586583e-05 5
2.75000000000000022204e-01  6.33333333333333303727e-01  6.94579078302703045722e-01  8.63375355412143719036e-05 5
2.83333333333333325932e-01  6.33333333333333303727e-01  7.09870991081436919501e-01  8.71719328705555795977e-05 5
2.91666666666666685170e-01  6.33333333333333303727e-01  7.24676393741872648668e-01  8.79465867699158465598e-05 5
2.99999999999999988898e-01  6.33333333333333303727e-01  7.38985139400264667842e-01  8.86609666382875971635e-05 5
3.08333333333333348136e-01  6.33333333333333303727e-01  7.52787421557316038800e-01  8.93145826358354710806e-05 5
3.16666666666666651864e-01  6.33333333333333303727e-01  7.66073780818300686946e-01  8.99069867816848500297e-05 5
3.25000000000000011102e-01  6.33333333333333303727e-01  7.78835111375899780128e-01  9.04377734218808626565e-05 5
3.33333333333333314830e-01  6.33333333333333303727e-01  7.91062667252122597716e-01  9.09065782506157660237e-05 5
3.41666666666666674068e-01  6.33333333333333303727e-01  8.02748068290523253410e-01  9.13130804011119678876e-05 5
3.49999999999999977796e-01  6.33333333333333303727e-01  8.13883305901075493338e-01  9.16570011302297871225e-05 5
3.58333333333333337034e-01  6.33333333333333303727e-01  8.24460748548166866279e-01  9.19381047036482712542e-05 5
3.66666666666666640761e-01  6.33333333333333303727e-01  8.34473146980950541973e-01  9.21561984785768117945e-05 5
3.75000000000000000000e-01  6.33333333333333303727e-01  8.43913639201719467664e-01  9.23111329361736565602e-05 5
3.83333333333333359239e-01  6.33333333333333303727e-01  8.52775755168309723686e-01  9.24028022510903213060e-05 5
3.91666666666666662966e-01  6.33333333333333303727e-01  8.61053421229799442749e-01  9.24311429084667679490e-05 5
4.00000000000000022204e-01  6.33333333333333303727e-01  8.68740964286811356843e-01  9.23961360225211691954e-05 5
4.08333333333333325932e-01  6.33333333333333303727e-01  8.75833115681398099994e-01  9.22978055226675309086e-05 5
4.16666666666666685170e-01  6.33333333333333303727e-01  8.82325014807566310182e-01  9.21362184881369117306e-05 5
4.24999999999999988898e-01  6.33333333333333303727e-01  8.88212212441155224418e-01  9.19114864397219122338e-05 5
4.33333333333333348136e-01  6.33333333333333303727e-01  8.93490673792363798711e-01  9.16237620128823593291e-05 5
4.41666666666666651864e-01  6.33333333333333303727e-01  8.98156781265823545013e-01  9.12732440225827446056e-05 5
4.50000000000000011102e-01  6.33333333333333303727e-01  9.02207336945782367721e-01  9.08601714638690438619e-05 5
4.58333333333333314830e-01  6.33333333333333303727e-01  9.05639564783223827149e-01  9.03848279188990133548e-05 5
4.66666666666666674068e-01  6.33333333333333303727e-01  9.08451112500289870155e-01  8.98475395062492410148e-05 5
4.74999999999999977796e-01  6.33333333333333303727e-01  9.10640053203789934244e-01  8.92486732819719463805e-05 5
4.83333333333333337034e-01  6.33333333333333303727e-01  9.12204886701332262611e-01  8.85886414525582921442e-05 5
4.91666666666666640761e-01  6.33333333333333303727e-01  9.13144540535919535529e-01  8.78678946542033045830e-05 5
5.00000000000000000000e-01  6.33333333333333303727e-01  9.13458370714558376413e-01  8.70869280426012082330e-05 5
5.08333333333333303727e-01  6.33333333333333303727e-01  9.13146162154600760097e-01  8.62462759729787364904e-05 5
5.16666666666666718477e-01  6.33333333333333303727e-01  9.12208128827447062292e-01  8.53465153377586105421e-05 5
5.25000000000000022204e-01  6.33333333333333303727e-01  9.10644913614490292275e-01  8.43882625816139153585e-05 5
5.33333333333333325932e-01  6.33333333333333303727e-01  9.08457587865965754403e-01  8.33721738304760151550e-05 5
5.41666666666666629659e-01  6.33333333333333303727e-01  9.05647650664746395321e-01  8.22989463964418632713e-05 5
5.50000000000000044409e-01  6.33333333333333303727e-01  9.02217027801843318713e-01  8.11693154028070296135e-05 5
5.58333333333333348136e-01  6.33333333333333303727e-01  8.98168070455501177385e-01  7.99840543450613949972e-05 5
5.66666666666666651864e-01  6.33333333333333303727e-01  8.93503553577202236369e-01  7.87439771744447014612e-05 5
5.74999999999999955591e-01  6.33333333333333303727e-01  8.88226673995630822134e-01  7.74499319642352190840e-05 5
5.83333333333333370341e-01  6.33333333333333303727e-01  8.82341048218885370957e-01  7.61028071690761365176e-05 5
5.91666666666666674068e-01  6.33333333333333303727e-01  8.75850709962150308918e-01  7.47035247704586069517e-05 5
5.99999999999999977796e-01  6.33333333333333303727e-01  8.68760107378283463753e-01  7.32530445504142591062e-05 5
6.08333333333333281523e-01  6.33333333333333303727e-01  8.61074100012319099129e-01  7.17523603888103878035e-05 5
6.16666666666666696273e-01  6.33333333333333303727e-01  8.52797955470061985750e-01  7.02025004988282574914e-05 5
6.25000000000000000000e-01  6.33333333333333303727e-01  8.43937345807120764540e-01  6.86045275348767802370e-05 5
6.33333333333333303727e-01  6.33333333333333303727e-01  8.34498343642962381317e-01  6.69595364668484904769e-05 5
6.41666666666666718477e-01  6.33333333333333303727e-01  8.24487417998462257529e-01  6.52686544082570208047e-05 5
6.50000000000000022204e-01  6.33333333333333303727e-01  8.13911429861294388743e-01  6.35330409113343819172e-05 5
6.58333333333333325932e-01  6.33333333333333303727e-01  8.02777627486230382914e-01  6.17538846939824637161e-05 5
6.66666666666666629659e-01  6.33333333333333303727e-01  7.91093641424875815282e-01  5.99324054975092224140e-05 5
6.75000000000000044409e-01  6.33333333333333303727e-01  7.78867479297532638860e-01  5.80698517891331533747e-05 5
6.83333333333333348136e-01  6.33333333333333303727e-01  7.66107520305362332813e-01  5.61674997200389825025e-05 5
6.91666666666666651864e-01  6.33333333333333303727e-01  7.52822509486502644549e-01  5.42266534492297225256e-05 5
6.99999999999999955591e-01  6.33333333333333303727e-01  7.39021551724254655014e-01  5.22486426483004251509e-05 5
7.08333333333333370341e-01  6.33333333333333303727e-01  7.24714105505081640501e-01  5.02348235609240134636e-05 5
7.16666666666666674068e-01  6.33333333333333303727e-01  7.09909976438482193117e-01  4.81865758255040077529e-05 5
7.24999999999999977796e-01  6.33333333333333303727e-01  6.94619310534727696371e-01  4.61053035165637226100e-05 5
7.33333333333333281523e-01  6.33333333333333303727e-01  6.78852587252592232225e-01  4.39924328848873003039e-05 5
7.41666666666666696273e-01  6.33333333333333303727e-01  6.62620612316543122766e-01  4.18494120909551625687e-05 5
7.50000000000000000000e-01  6.33333333333333303727e-01  6.45934510311607756883e-01  3.96777096433043041657e-05 5
7.58333333333333303727e-01  6.33333333333333303727e-01  6.28805717058322111157e-01  3.74788142070148211360e-05 5
7.66666666666666718477e-01  6.33333333333333303727e-01  6.11245971776083418803e-01  3.52542326905735947662e-05 5
7.75000000000000022204e-01  6.33333333333333303727e-01  5.93267309037080248224e-01  3.30054898115550443549e-05 5
7.83333333333333325932e-01  6.33333333333333303727e-01  5.74882050519256782017e-01  3.07341261874816140676e-05 5
7.91666666666666629659e-01  6.33333333333333303727e-01  5.56102796559494572115e-01  2.84416994410507939506e-05 5
8.00000000000000044409e-01  6.33333333333333303727e-01  5.36942417521218073873e-01  2.61297798810344872322e-05 5
8.08333333333333348136e-01  6.33333333333333303727e-01  5.17414044971118203264e-01  2.37999520016352050789e-05 5
8.16666666666666651864e-01  6.33333333333333303727e-01  4.97531062679398450310e-01  2.14538134292729942842e-05 5
8.24999999999999955591e-01  6.33333333333333303727e-01  4.77307097449910677778e-01  1.90929711230136689437e-05 5
8.33333333333333370341e-01  6.33333333333333303727e-01  4.56756009777781302184e-01  1.67190435191311159713e-05 5
8.41666666666666674068e-01  6.33333333333333303727e-01  4.35891884352137382042e-01  1.43336574028873897646e-05 5
8.49999999999999977796e-01  6.33333333333333303727e-01  4.14729020401911951943e-01  1.19384480454787222925e-05 5
8.58333333333333281523e-01  6.33333333333333303727e-01  3.93281921897522646070e-01  9.53505642975471801037e-06 5
8.66666666666666696273e-01  6.33333333333333303727e-01  3.71565287608849326162e-01  7.12512984768487456222e-06 5
8.75000000000000000000e-01  6.33333333333333303727e-01  3.49594001031932166690e-01  4.71032027521411933435e-06 5
8.83333333333333303727e-01  6.33333333333333303727e-01  3.27383120189327525562e-01  2.29228247472512691729e-06 5
8.91666666666666718477e-01  6.33333333333333303727e-01  3.04947867309587228313e-01  1.27326632848312470969e-07 5
9.00000000000000022204e-01  6.33333333333333303727e-01  2.82303618393648758644e-01  2.54684804629201622106e-06 5
9.08333333333333325932e-01  6.33333333333333303727e-01  2.59465892679299203749e-01  4.96462423316135215146e-06 5
9.16666666666666629659e-01  6.33333333333333303727e-01  2.36450342002660574003e-01  7.37899785702156307821e-06 5
9.25000000000000044409e-01  6.33333333333333303727e-01  2.13272740072642991160e-01  9.78831435627380841424e-06 5
9.33333333333333348136e-01  6.33333333333333303727e-01  1.89948971659616383523e-01  1.21909222594862587385e-05 5
9.41666666666666651864e-01  6.33333333333333303727e-01  1.66495021709713253433e-01  1.45851752492986985743e-05 5
9.49999999999999955591e-01  6.33333333333333303727e-01  1.42926964388533445094e-01  1.69694322801616781504e-05 5
9.58333333333333370341e-01  6.33333333333333303727e-01  1.19260952065336864325e-01  1.93420593237458859903e-05 5
9.66666666666666674068e-01  6.33333333333333303727e-01  9.55132042427393052053e-02  2.17014302127671587783e-05 5
9.74999999999999977796e-01  6.33333333333333303727e-01  7.16999964410376944279e-02  2.40459281188321050138e-05 5
9.83333333333333281523e-01  6.33333333333333303727e-01  4.78376490431660778002e-02  2.63739460424350369294e-05 5
9.91666666666666696273e-01  6.33333333333333303727e-01  2.39272842089388974862e-02  1.34519873363665720678e-05 5
1.00000000000000000000e+00  6.33333333333333303727e-01  0.00000000000000000000e+00  1.11877052057761513597e-16 5
0.00000000000000000000e+00  6.41666666666666718477e-01  0.00000000000000000000e+00  0.00000000000000000000e+00 5
8.33333333333333321769e-03  6.41666666666666718477e-01  2.36080248123246121128e-02  1.89035195486755847050e-05 5
1.66666666666666664354e-02  6.41666666666666718477e-01  4.72004211151419925119e-02  3.72428321173193244142e-05 5
2.50000000000000013878e-02  6.41666666666666718477e-01  7.07765908391057158022e-02  3.94343882441361426316e-05 5
3.33333333333333328707e-02  6.41666666666666718477e-01  9.43042538230764865181e-02  4.15989180124615165468e-05 5
4.16666666666666643537e-02  6.41666666666666718477e-01  1.17767285382084405110e-01  4.37349379553975126100e-05 5
5.00000000000000027756e-02  6.41666666666666718477e-01  1.41149605126292598811e-01  4.58409841624929370596e-05 5
5.83333333333333342585e-02  6.41666666666666718477e-01  1.64435187981732428009e-01  4.79156132437430493098e-05 5
6.66666666666666657415e-02  6.41666666666666718477e-01  1.87608075173041649597e-01  4.99574033659133664997e-05 5
7.49999999999999972244e-02  6.41666666666666718477e-01  2.10652385160871258307e-01  5.19649551677658916304e-05 5
8.33333333333333287074e-02  6.41666666666666718477e-01  2.33552324526229176938e-01  5.39368927888750349098e-05 5
9.16666666666666601904e-02  6.41666666666666718477e-01  2.56292198794557002373e-01  5.58718647566402992766e-05 5
1.00000000000000005551e-01  6.41666666666666718477e-01  2.78856423191914559734e-01  5.77685449366094339041e-05 5
1.08333333333333337034e-01  6.41666666666666718477e-01  3.01229533325978626745e-01  5.96256334683964439591e-05 5
1.16666666666666668517e-01  6.41666666666666718477e-01  3.23396195784696527387e-01  6.14418575247688281138e-05 5
1.25000000000000000000e-01  6.41666666666666718477e-01  3.45341218644786063230e-01  6.32159724391345712036e-05 5
1.33333333333333331483e-01  6.41666666666666718477e-01  3.67049561883801278572e-01  6.49467622775290465142e-05 5
1.41666666666666662966e-01  6.41666666666666718477e-01  3.88506347687672670688e-01  6.66330408126691864368e-05 5
1.49999999999999994449e-01  6.41666666666666718477e-01  4.09696870647104027796e-01  6.82736524500460184584e-05 5
1.58333333333333325932e-01  6.41666666666666718477e-01  4.30606607836264976275e-01  6.98674726806181034533e-05 5
1.66666666666666657415e-01  6.41666666666666718477e-01  4.51221228765670612226e-01  7.14134092595908320789e-05 5
1.74999999999999988898e-01  6.41666666666666718477e-01  4.71526605203906989949e-01  7.29104026316318432066e-05 5