Titile = 'Poisson'  
VARIABLES = X, Y, U, Error 
zone N= 625, E = 1152
DATAPACKING=POINT, ZONETYPE=FETRIANGLE
0.00000000000000000000e+00  0.00000000000000000000e+00  0.00000000000000000000e+00  0.00000000000000000000e+00
4.16666666666666643537e-02  0.00000000000000000000e+00  0.00000000000000000000e+00  0.00000000000000000000e+00
8.33333333333333287074e-02  0.00000000000000000000e+00  0.00000000000000000000e+00  0.00000000000000000000e+00
1.25000000000000000000e-01  0.00000000000000000000e+00  0.00000000000000000000e+00  0.00000000000000000000e+00
1.66666666666666657415e-01  0.00000000000000000000e+00  0.00000000000000000000e+00  0.00000000000000000000e+00
2.08333333333333342585e-01  0.00000000000000000000e+00  0.00000000000000000000e+00  0.00000000000000000000e+00
2.50000000000000000000e-01  0.00000000000000000000e+00  0.00000000000000000000e+00  0.00000000000000000000e+00
2.91666666666666685170e-01  0.00000000000000000000e+00  0.00000000000000000000e+00  0.00000000000000000000e+00
3.33333333333333314830e-01  0.00000000000000000000e+00  0.00000000000000000000e+00  0.00000000000000000000e+00
3.75000000000000000000e-01  0.00000000000000000000e+00  0.00000000000000000000e+00  0.00000000000000000000e+00
4.16666666666666685170e-01  0.00000000000000000000e+00  0.00000000000000000000e+00  0.00000000000000000000e+00
4.58333333333333314830e-01  0.00000000000000000000e+00  0.00000000000000000000e+00  0.00000000000000000000e+00
5.00000000000000000000e-01  0.00000000000000000000e+00  0.00000000000000000000e+00  0.00000000000000000000e+00
5.41666666666666629659e-01  0.00000000000000000000e+00  0.00000000000000000000e+00  0.00000000000000000000e+00
5.83333333333333370341e-01  0.00000000000000000000e+00  0.00000000000000000000e+00  0.00000000000000000000e+00
6.25000000000000000000e-01  0.00000000000000000000e+00  0.00000000000000000000e+00  0.00000000000000000000e+00
6.66666666666666629659e-01  0.00000000000000000000e+00  0.00000000000000000000e+00  0.00000000000000000000e+00
7.08333333333333370341e-01  0.00000000000000000000e+00  0.00000000000000000000e+00  0.00000000000000000000e+00
7.50000000000000000000e-01  0.00000000000000000000e+00  0.00000000000000000000e+00  0.00000000000000000000e+00
7.91666666666666629659e-01  0.00000000000000000000e+00  0.00000000000000000000e+00  0.00000000000000000000e+00
8.33333333333333370341e-01  0.00000000000000000000e+00  0.00000000000000000000e+00  0.00000000000000000000e+00
8.75000000000000000000e-01  0.00000000000000000000e+00  0.00000000000000000000e+00  0.00000000000000000000e+00
9.16666666666666629659e-01  0.00000000000000000000e+00  0.00000000000000000000e+00  0.00000000000000000000e+00
9.58333333333333370341e-01  0.00000000000000000000e+00  0.00000000000000000000e+00  0.00000000000000000000e+00
1.00000000000000000000e+00  0.00000000000000000000e+00  0.00000000000000000000e+00  0.00000000000000000000e+00
0.00000000000000000000e+00  4.16666666666666643537e-02  0.00000000000000000000e+00  0.00000000000000000000e+00
4.16666666666666643537e-02  4.16666666666666643537e-02  1.70691905973273973240e-02  3.21037418615464920091e-05
8.33333333333333287074e-02  4.16666666666666643537e-02  3.38155602536218818921e-02  3.28958223600600563330e-05
1.25000000000000000000e-01  4.16666666666666643537e-02  4.99661617098644331159e-02  1.59504575496169365145e-05
1.66666666666666657415e-01  4.16666666666666643537e-02  6.52511346709395978483e-02  1.19614390861749742001e-05
2.08333333333333342585e-01  4.16666666666666643537e-02  7.94125149633368582203e-02  4.67963356086953385926e-05
2.50000000000000000000e-01  4.16666666666666643537e-02  9.22101796267050660694e-02  8.57760145521746508734e-05
2.91666666666666685170e-01  4.16666666666666643537e-02  1.03426597774966058663e-01  1.26792818307686072643e-04
3.33333333333333314830e-01  4.16666666666666643537e-02  1.12870859541602461262e-01  1.68138780212948035775e-04
3.75000000000000000000e-01  4.16666666666666643537e-02  1.20382107082173964163e-01  2.08370366565638343026e-04
4.16666666666666685170e-01  4.16666666666666643537e-02  1.25832384192134161260e-01  2.46235880384915173380e-04
4.58333333333333314830e-01  4.16666666666666643537e-02  1.29128888597748098244e-01  2.80633953512271494546e-04
5.00000000000000000000e-01  4.16666666666666643537e-02  1.30215604333298456963e-01  3.10587886753116437788e-04
5.41666666666666629659e-01  4.16666666666666643537e-02  1.29074294976119718914e-01  3.35227575140650824181e-04
5.83333333333333370341e-01  4.16666666666666643537e-02  1.25724846230609255127e-01  3.53773841909821307183e-04
6.25000000000000000000e-01  4.16666666666666643537e-02  1.20224956232070773199e-01  3.65521216668829307395e-04
6.66666666666666629659e-01  4.16666666666666643537e-02  1.12669183101956518755e-01  3.69815219858904420391e-04
7.08333333333333370341e-01  4.16666666666666643537e-02  1.03187371536762204083e-01  3.66019056511540652465e-04
7.50000000000000000000e-01  4.16666666666666643537e-02  9.19424940540543439438e-02  3.53461587202910654248e-04
7.91666666666666629659e-01  4.16666666666666643537e-02  7.91279597830089054256e-02  3.31351515936675888874e-04
8.33333333333333370341e-01  4.16666666666666643537e-02  6.49644696623587758477e-02  2.98626447666996974739e-04
8.75000000000000000000e-01  4.16666666666666643537e-02  4.96965471176577730517e-02  2.53664134657057005473e-04
9.16666666666666629659e-01  4.16666666666666643537e-02  3.35889964883620828484e-02  1.93667942899773681820e-04
9.58333333333333370341e-01  4.16666666666666643537e-02  1.69239034051891779065e-02  1.13183450276672925572e-04
1.00000000000000000000e+00  4.16666666666666643537e-02  0.00000000000000000000e+00  1.59848483507178328332e-17
0.00000000000000000000e+00  8.33333333333333287074e-02  0.00000000000000000000e+00  0.00000000000000000000e+00
4.16666666666666643537e-02  8.33333333333333287074e-02  3.38155602536218680143e-02  3.28958223600461785452e-05
8.33333333333333287074e-02  8.33333333333333287074e-02  6.70112150188978406007e-02  2.39169111171805282012e-05
1.25000000000000000000e-01  8.33333333333333287074e-02  9.90330469340227059760e-02  1.27136072649164377779e-05
1.66666666666666657415e-01  8.33333333333333287074e-02  1.29341923750752707534e-01  6.75988005076344489197e-05
2.08333333333333342585e-01  8.33333333333333287074e-02  1.57424852833823264442e-01  1.34198917459776856376e-04
2.50000000000000000000e-01  8.33333333333333287074e-02  1.82805049555328447131e-01  2.07652336890851163531e-04
2.91666666666666685170e-01  8.33333333333333287074e-02  2.05050826190118329340e-01  2.84127772954362312063e-04
3.33333333333333314830e-01  8.33333333333333287074e-02  2.23783399166065544161e-01  3.60468875947816957961e-04
3.75000000000000000000e-01  8.33333333333333287074e-02  2.38683623856057403056e-01  4.33994538277082675393e-04
4.16666666666666685170e-01  8.33333333333333287074e-02  2.49497617006518318528e-01  5.02382993481653716827e-04
4.58333333333333314830e-01  8.33333333333333287074e-02  2.56041210649297967805e-01  5.63601643272682029107e-04
5.00000000000000000000e-01  8.33333333333333287074e-02  2.58203183573867900424e-01  6.15861528652839052000e-04
5.41666666666666629659e-01  8.33333333333333287074e-02  2.55947228440042029440e-01  6.57583852528675905091e-04
5.83333333333333370341e-01  8.33333333333333287074e-02  2.49312629881594138848e-01  6.87370118405833396835e-04
6.25000000000000000000e-01  8.33333333333333287074e-02  2.38413649210244910082e-01  7.03969184089575650276e-04
6.66666666666666629659e-01  8.33333333333333287074e-02  2.23437633459907497580e-01  7.06234582105891295356e-04
7.08333333333333370341e-01  8.33333333333333287074e-02  2.04641890134200060691e-01  6.93063828872630960376e-04
7.50000000000000000000e-01  8.33333333333333287074e-02  1.82349394502745426605e-01  6.63307389473899444710e-04
7.91666666666666629659e-01  8.33333333333333287074e-02  1.56943425180234574778e-01  6.15626571048522031049e-04
8.33333333333333370341e-01  8.33333333333333287074e-02  1.28861259823115165135e-01  5.48262728145176847505e-04
8.75000000000000000000e-01  8.33333333333333287074e-02  9.85871141412597296050e-02  4.58646400027920564391e-04
9.16666666666666629659e-01  8.33333333333333287074e-02  6.66445878111409373279e-02  3.42710296639806011321e-04
9.58333333333333370341e-01  8.33333333333333287074e-02  3.35889964883620828484e-02  1.93667942899738987350e-04
1.00000000000000000000e+00  8.33333333333333287074e-02  0.00000000000000000000e+00  3.16961915143176494126e-17
0.00000000000000000000e+00  1.25000000000000000000e-01  0.00000000000000000000e+00  0.00000000000000000000e+00
4.16666666666666643537e-02  1.25000000000000000000e-01  4.99661617098644053603e-02  1.59504575495891809389e-05
8.33333333333333287074e-02  1.25000000000000000000e-01  9.90330469340226782204e-02  1.27136072649441933535e-05
1.25000000000000000000e-01  1.25000000000000000000e-01  1.46373438413189310703e-01  7.31709935369306840869e-05
1.66666666666666657415e-01  1.25000000000000000000e-01  1.91186258501059302972e-01  1.55457681485560161860e-04
2.08333333333333342585e-01  1.25000000000000000000e-01  2.32711091822218829606e-01  2.51821322315326501240e-04
2.50000000000000000000e-01  1.25000000000000000000e-01  2.70241967954250705830e-01  3.56082118847744766299e-04
2.91666666666666685170e-01  1.25000000000000000000e-01  3.03140010497867651296e-01  4.63168843091277260271e-04
3.33333333333333314830e-01  1.25000000000000000000e-01  3.30844760633841494801e-01  5.68813401750301039783e-04
3.75000000000000000000e-01  1.25000000000000000000e-01  3.52884034318135919595e-01  6.69356275137866774116e-04
4.16666666666666685170e-01  1.25000000000000000000e-01  3.68882187689151819221e-01  7.61622925234295422570e-04
4.58333333333333314830e-01  1.25000000000000000000e-01  3.78566679026978880618e-01  8.42843524281489120398e-04
5.00000000000000000000e-01  1.25000000000000000000e-01  3.81772834756041734572e-01  9.10597609048047207381e-04
5.41666666666666629659e-01  1.25000000000000000000e-01  3.78446751435001615960e-01  9.62771116258809289690e-04
5.83333333333333370341e-01  1.25000000000000000000e-01  3.68646294043747491109e-01  9.97516570638623534251e-04
6.25000000000000000000e-01  1.25000000000000000000e-01  3.52540181881705050326e-01  1.01320871156873604235e-03
6.66666666666666629659e-01  1.25000000000000000000e-01  3.30405186113220172839e-01  1.00838792237162300225e-03
7.08333333333333370341e-01  1.25000000000000000000e-01  3.02621496874451056946e-01  9.81682466507871609451e-04
7.50000000000000000000e-01  1.25000000000000000000e-01  2.69666352703365974630e-01  9.31697369732531477382e-04
7.91666666666666629659e-01  1.25000000000000000000e-01  2.32106061063377444587e-01  8.56852081156794787020e-04
8.33333333333333370341e-01  1.25000000000000000000e-01  1.90586576254982514866e-01  7.55139927562348267642e-04
8.75000000000000000000e-01  1.25000000000000000000e-01  1.45822839163195161483e-01  6.23770243531135415438e-04
9.16666666666666629659e-01  1.25000000000000000000e-01  9.85871141412598128717e-02  4.58646400027906686603e-04
9.58333333333333370341e-01  1.25000000000000000000e-01  4.96965471176578146850e-02  2.53664134657001494322e-04
1.00000000000000000000e+00  1.25000000000000000000e-01  0.00000000000000000000e+00  4.68652040532629858459e-17
0.00000000000000000000e+00  1.66666666666666657415e-01  0.00000000000000000000e+00  0.00000000000000000000e+00
4.16666666666666643537e-02  1.66666666666666657415e-01  6.52511346709395700927e-02  1.19614390862027297757e-05
8.33333333333333287074e-02  1.66666666666666657415e-01  1.29341923750752624267e-01  6.75988005077177156465e-05
1.25000000000000000000e-01  1.66666666666666657415e-01  1.91186258501059191950e-01  1.55457681485671184163e-04
1.66666666666666657415e-01  1.66666666666666657415e-01  2.49734238190832708026e-01  2.65761809167236462415e-04
2.08333333333333342585e-01  1.66666666666666657415e-01  3.03990407042041999031e-01  3.90307462318273401536e-04
2.50000000000000000000e-01  1.66666666666666657415e-01  3.53031197144879016481e-01  5.22193448394658865652e-04
2.91666666666666685170e-01  1.66666666666666657415e-01  3.96021114895641790365e-01  6.55555249975736664680e-04
3.33333333333333314830e-01  1.66666666666666657415e-01  4.32227347078927903734e-01  7.85354813291339048931e-04
3.75000000000000000000e-01  1.66666666666666657415e-01  4.61032537750321380621e-01  9.07228505321933109684e-04
4.16666666666666685170e-01  1.66666666666666657415e-01  4.81945532243658603111e-01  1.01738090087549748475e-03
4.58333333333333314830e-01  1.66666666666666657415e-01  4.94609920473462139068e-01  1.11251021344299649840e-03
5.00000000000000000000e-01  1.66666666666666657415e-01  4.98810246888112540642e-01  1.18975311188740384694e-03
5.41666666666666629659e-01  1.66666666666666657415e-01  4.94475791682180310094e-01  1.24663900472488098359e-03
5.83333333333333370341e-01  1.66666666666666657415e-01  4.81681867530050378257e-01  1.28104561448372233912e-03
6.25000000000000000000e-01  1.66666666666666657415e-01  4.60648617663337089922e-01  1.29114859230622380792e-03
6.66666666666666629659e-01  1.66666666666666657415e-01  4.31737343867258760444e-01  1.27535802496053785049e-03
7.08333333333333370341e-01  1.66666666666666657415e-01  3.95444436184718361993e-01  1.23223396089916503726e-03
7.50000000000000000000e-01  1.66666666666666657415e-01  3.52393019054961786907e-01  1.16037153831194395082e-03
7.91666666666666629659e-01  1.66666666666666657415e-01  3.03322470357559159648e-01  1.05824414680122380616e-03
8.33333333333333370341e-01  1.66666666666666657415e-01  2.49076008697279693838e-01  9.23991302720250651248e-04
8.75000000000000000000e-01  1.66666666666666657415e-01  1.90586576254982514866e-01  7.55139927562403778794e-04
9.16666666666666629659e-01  1.66666666666666657415e-01  1.28861259823115303913e-01  5.48262728145176847505e-04
9.58333333333333370341e-01  1.66666666666666657415e-01  6.49644696623588591144e-02  2.98626447666913708012e-04
1.00000000000000000000e+00  1.66666666666666657415e-01  0.00000000000000000000e+00  6.12323399573676480327e-17
0.00000000000000000000e+00  2.08333333333333342585e-01  0.00000000000000000000e+00  0.00000000000000000000e+00
4.16666666666666643537e-02  2.08333333333333342585e-01  7.94125149633368582203e-02  4.67963356086953385926e-05
8.33333333333333287074e-02  2.08333333333333342585e-01  1.57424852833823125664e-01  1.34198917459915634254e-04
1.25000000000000000000e-01  2.08333333333333342585e-01  2.32711091822218718583e-01  2.51821322315437523542e-04
1.66666666666666657415e-01  2.08333333333333342585e-01  3.03990407042042110053e-01  3.90307462318162379233e-04
2.08333333333333342585e-01  2.08333333333333342585e-01  3.70049067629943273516e-01  5.41409818796356745452e-04
2.50000000000000000000e-01  2.08333333333333342585e-01  4.29761417028677705776e-01  6.97917548201698600963e-04
2.91666666666666685170e-01  2.08333333333333342585e-01  4.82109378356055773285e-01  8.53534788478382822063e-04
3.33333333333333314830e-01  2.08333333333333342585e-01  5.26200101817757559530e-01  1.00276054791159641155e-03
3.75000000000000000000e-01  2.08333333333333342585e-01  5.61281435576212572869e-01  1.14078886726709516353e-03
4.16666666666666685170e-01  2.08333333333333342585e-01  5.86754954817995222349e-01  1.26343151016727883729e-03
4.58333333333333314830e-01  2.08333333333333342585e-01  6.02186331865654622675e-01  1.36705872761910818269e-03
5.00000000000000000000e-01  2.08333333333333342585e-01  6.07312877399600492545e-01  1.44855160912016334152e-03
5.41666666666666629659e-01  2.08333333333333342585e-01  6.02048131222298721354e-01  1.50525937097512052532e-03
5.83333333333333370341e-01  2.08333333333333342585e-01  5.86483431018406498048e-01  1.53495530975600313894e-03
6.25000000000000000000e-01  2.08333333333333342585e-01  5.60886438943841603155e-01  1.53578549963806487710e-03
6.66666666666666629659e-01  2.08333333333333342585e-01  5.25696657929199728798e-01  1.50620443646953816597e-03
7.08333333333333370341e-01  2.08333333333333342585e-01  4.81518021417652708482e-01  1.44489172688144762446e-03
7.50000000000000000000e-01  2.08333333333333342585e-01  4.29108690793666258667e-01  1.35064378321320122112e-03
7.91666666666666629659e-01  2.08333333333333342585e-01  3.69368242572414628988e-01  1.22223487632516780721e-03
8.33333333333333370341e-01  2.08333333333333342585e-01  3.03322470357558715559e-01  1.05824414680155687307e-03
8.75000000000000000000e-01  2.08333333333333342585e-01  2.32106061063377250298e-01  8.56852081156961320474e-04
9.16666666666666629659e-01  2.08333333333333342585e-01  1.56943425180234880090e-01  6.15626571048327742020e-04
9.58333333333333370341e-01  2.08333333333333342585e-01  7.91279597830089748145e-02  3.31351515936578744359e-04
1.00000000000000000000e+00  2.08333333333333342585e-01  0.00000000000000000000e+00  7.45517735479898425620e-17
0.00000000000000000000e+00  2.50000000000000000000e-01  0.00000000000000000000e+00  0.00000000000000000000e+00
4.16666666666666643537e-02  2.50000000000000000000e-01  9.22101796267050244360e-02  8.57760145522162842369e-05
8.33333333333333287074e-02  2.50000000000000000000e-01  1.82805049555328336108e-01  2.07652336890962185834e-04
1.25000000000000000000e-01  2.50000000000000000000e-01  2.70241967954250594808e-01  3.56082118847855788601e-04
1.66666666666666657415e-01  2.50000000000000000000e-01  3.53031197144878849947e-01  5.22193448394825399106e-04
2.08333333333333342585e-01  2.50000000000000000000e-01  4.29761417028677650265e-01  6.97917548201754112114e-04
2.50000000000000000000e-01  2.50000000000000000000e-01  4.99123987895410514692e-01  8.76012104589374285268e-04
2.91666666666666685170e-01  2.50000000000000000000e-01  5.59935497122712066975e-01  1.05002967421885529120e-03
3.33333333333333314830e-01  2.50000000000000000000e-01  6.11158169445012999788e-01  1.21426625078147054637e-03
3.75000000000000000000e-01  2.50000000000000000000e-01  6.51917773800096633785e-01  1.36370863809154307944e-03
4.16666666666666685170e-01  2.50000000000000000000e-01  6.81518714093977018287e-01  1.49398779824228000734e-03
4.58333333333333314830e-01  2.50000000000000000000e-01  6.99456045826653882713e-01  1.60133882332391674908e-03
5.00000000000000000000e-01  2.50000000000000000000e-01  7.05424216199841191965e-01  1.68256498670626974956e-03
5.41666666666666629659e-01  2.50000000000000000000e-01  6.99322382653307039746e-01  1.73500199667087073863e-03
5.83333333333333370341e-01  2.50000000000000000000e-01  6.81256223740321464888e-01  1.75647815189783340628e-03
6.25000000000000000000e-01  2.50000000000000000000e-01  6.51536216369603682352e-01  1.74526606858449451209e-03
6.66666666666666629659e-01  2.50000000000000000000e-01  6.10672413902563548938e-01  1.70002179323092139640e-03
7.08333333333333370341e-01  2.50000000000000000000e-01  5.59365819366228755882e-01  1.61970743070216638415e-03
7.50000000000000000000e-01  2.50000000000000000000e-01  4.98496505880814733125e-01  1.50349411918526687515e-03
7.91666666666666629659e-01  2.50000000000000000000e-01  4.29108690793666425201e-01  1.35064378321309019881e-03
8.33333333333333370341e-01  2.50000000000000000000e-01  3.52393019054961897929e-01  1.16037153831177741736e-03
8.75000000000000000000e-01  2.50000000000000000000e-01  2.69666352703365697074e-01  9.31697369732864544289e-04
9.16666666666666629659e-01  2.50000000000000000000e-01  1.82349394502745870694e-01  6.63307389473621888953e-04
9.58333333333333370341e-01  2.50000000000000000000e-01  9.19424940540546076218e-02  3.53461587202633098492e-04
1.00000000000000000000e+00  2.50000000000000000000e-01  0.00000000000000000000e+00  8.65956056235493162558e-17
0.00000000000000000000e+00  2.91666666666666685170e-01  0.00000000000000000000e+00  0.00000000000000000000e+00
4.16666666666666643537e-02  2.91666666666666685170e-01  1.03426597774966003151e-01  1.26792818307741583794e-04
8.33333333333333287074e-02  2.91666666666666685170e-01  2.05050826190118329340e-01  2.84127772954362312063e-04
1.25000000000000000000e-01  2.91666666666666685170e-01  3.03140010497867762318e-01  4.63168843091166237969e-04
1.66666666666666657415e-01  2.91666666666666685170e-01  3.96021114895641845877e-01  6.55555249975681153529e-04
2.08333333333333342585e-01  2.91666666666666685170e-01  4.82109378356055773285e-01  8.53534788478382822063e-04
2.50000000000000000000e-01  2.91666666666666685170e-01  5.59935497122712066975e-01  1.05002967421885529120e-03
2.91666666666666685170e-01  2.91666666666666685170e-01  6.28170865395966226963e-01  1.23865715529414277540e-03
3.33333333333333314830e-01  2.91666666666666685170e-01  6.85650421579522828530e-01  1.41372528992722568120e-03
3.75000000000000000000e-01  2.91666666666666685170e-01  7.31392695562235628515e-01  1.57021758229847208099e-03
4.16666666666666685170e-01  2.91666666666666685170e-01  7.64616707111282045695e-01  1.70377364872165149023e-03
4.58333333333333314830e-01  2.91666666666666685170e-01  7.84755424101613807686e-01  1.81066838387922146580e-03
5.00000000000000000000e-01  2.91666666666666685170e-01  7.91465551080360207870e-01  1.88778921087495721309e-03
5.41666666666666629659e-01  2.91666666666666685170e-01  7.84633483044414492547e-01  1.93260944107864762742e-03
5.83333333333333370341e-01  2.91666666666666685170e-01  7.64377325701977805572e-01  1.94315505802589161277e-03
6.25000000000000000000e-01  2.91666666666666685170e-01  7.31044951099586448606e-01  1.91796204494765198945e-03
6.66666666666666629659e-01  2.91666666666666685170e-01  6.85208125332161466226e-01  1.85602153728869900817e-03
7.08333333333333370341e-01  2.91666666666666685170e-01  6.27652811954127143323e-01  1.75671059713322641471e-03
7.50000000000000000000e-01  2.91666666666666685170e-01  5.59365819366228866905e-01  1.61970743070216638415e-03
7.91666666666666629659e-01  2.91666666666666685170e-01  4.81518021417652986038e-01  1.44489172688133660216e-03
8.33333333333333370341e-01  2.91666666666666685170e-01  3.95444436184717973415e-01  1.23223396089955361532e-03
8.75000000000000000000e-01  2.91666666666666685170e-01  3.02621496874451001435e-01  9.81682466508038142905e-04
9.16666666666666629659e-01  2.91666666666666685170e-01  2.04641890134200393758e-01  6.93063828872492182498e-04
9.58333333333333370341e-01  2.91666666666666685170e-01  1.03187371536762523272e-01  3.66019056511221463346e-04
1.00000000000000000000e+00  2.91666666666666685170e-01  0.00000000000000000000e+00  9.71577628780522024780e-17
0.00000000000000000000e+00  3.33333333333333314830e-01  0.00000000000000000000e+00  0.00000000000000000000e+00
4.16666666666666643537e-02  3.33333333333333314830e-01  1.12870859541602489018e-01  1.68138780212920280199e-04
8.33333333333333287074e-02  3.33333333333333314830e-01  2.23783399166065599672e-01  3.60468875947761446810e-04
1.25000000000000000000e-01  3.33333333333333314830e-01  3.30844760633841494801e-01  5.68813401750301039783e-04
1.66666666666666657415e-01  3.33333333333333314830e-01  4.32227347078927903734e-01  7.85354813291339048931e-04
2.08333333333333342585e-01  3.33333333333333314830e-01  5.26200101817757670553e-01  1.00276054791148538925e-03
2.50000000000000000000e-01  3.33333333333333314830e-01  6.11158169445012888765e-01  1.21426625078158156867e-03
2.91666666666666685170e-01  3.33333333333333314830e-01  6.85650421579522717508e-01  1.41372528992733670350e-03
3.33333333333333314830e-01  3.33333333333333314830e-01  7.48404364808346933557e-01  1.59563519165295542024e-03
3.75000000000000000000e-01  3.33333333333333314830e-01  7.98347995596872306301e-01  1.75514959439315720857e-03
4.16666666666666685170e-01  3.33333333333333314830e-01  8.34628222611301651135e-01  1.88808112650618031836e-03
4.58333333333333314830e-01  3.33333333333333314830e-01  8.56625538673740249962e-01  1.99089772752059079863e-03
5.00000000000000000000e-01  3.33333333333333314830e-01  8.63964690946186997245e-01  2.06071283825159934366e-03
5.41666666666666629659e-01  3.33333333333333314830e-01  8.56521167820279205607e-01  2.09526858098174617595e-03
5.83333333333333370341e-01  3.33333333333333314830e-01  8.34423393362248577709e-01  2.09291037555925374392e-03
6.25000000000000000000e-01  3.33333333333333314830e-01  7.98050593958371412562e-01  2.05255123289405094766e-03
6.66666666666666629659e-01  3.33333333333333314830e-01  7.48026375855991743080e-01  1.97362414400825691985e-03
7.08333333333333370341e-01  3.33333333333333314830e-01  6.85208125332161355203e-01  1.85602153728869900817e-03
7.50000000000000000000e-01  3.33333333333333314830e-01  6.10672413902563326893e-01  1.70002179323125446331e-03
7.91666666666666629659e-01  3.33333333333333314830e-01  5.25696657929199506754e-01  1.50620443646987123287e-03
8.33333333333333370341e-01  3.33333333333333314830e-01  4.31737343867258704933e-01  1.27535802496053785049e-03
8.75000000000000000000e-01  3.33333333333333314830e-01  3.30405186113220228350e-01  1.00838792237162300225e-03
9.16666666666666629659e-01  3.33333333333333314830e-01  2.23437633459907442068e-01  7.06234582106141095537e-04
9.58333333333333370341e-01  3.33333333333333314830e-01  1.12669183101956921211e-01  3.69815219858488086757e-04
1.00000000000000000000e+00  3.33333333333333314830e-01  0.00000000000000000000e+00  1.06057523872490679157e-16
0.00000000000000000000e+00  3.75000000000000000000e-01  0.00000000000000000000e+00  0.00000000000000000000e+00
4.16666666666666643537e-02  3.75000000000000000000e-01  1.20382107082174061308e-01  2.08370366565541198511e-04
8.33333333333333287074e-02  3.75000000000000000000e-01  2.38683623856057652857e-01  4.33994538276832875212e-04
1.25000000000000000000e-01  3.75000000000000000000e-01  3.52884034318136030617e-01  6.69356275137755751814e-04
1.66666666666666657415e-01  3.75000000000000000000e-01  4.61032537750321491643e-01  9.07228505321822087382e-04
2.08333333333333342585e-01  3.75000000000000000000e-01  5.61281435576212683891e-01  1.14078886726698414122e-03
2.50000000000000000000e-01  3.75000000000000000000e-01  6.51917773800096855830e-01  1.36370863809132103484e-03
2.91666666666666685170e-01  3.75000000000000000000e-01  7.31392695562235628515e-01  1.57021758229847208099e-03
3.33333333333333314830e-01  3.75000000000000000000e-01  7.98347995596872195279e-01  1.75514959439326823087e-03
3.75000000000000000000e-01  3.75000000000000000000e-01  8.51639416746023947269e-01  1.91397384724978358861e-03
4.16666666666666685170e-01  3.75000000000000000000e-01  8.90356286007608632715e-01  2.04281482491419641434e-03
4.58333333333333314830e-01  3.75000000000000000000e-01  9.13837151976003569942e-01  2.13846306074982894785e-03
5.00000000000000000000e-01  3.75000000000000000000e-01  9.21681155413659136677e-01  2.19837709762760180610e-03
5.41666666666666629659e-01  3.75000000000000000000e-01  9.13754938743892575204e-01  2.22067629286093470853e-03
5.83333333333333370341e-01  3.75000000000000000000e-01  8.90194977228394579427e-01  2.20412360412824970268e-03
6.25000000000000000000e-01  3.75000000000000000000e-01  8.51405293230042992114e-01  2.14809736323073874331e-03
6.66666666666666629659e-01  3.75000000000000000000e-01  7.98050593958370746428e-01  2.05255123289482810378e-03
7.08333333333333370341e-01  3.75000000000000000000e-01  7.31044951099586115539e-01  1.91796204494798505635e-03
7.50000000000000000000e-01  3.75000000000000000000e-01  6.51536216369603793375e-01  1.74526606858449451209e-03
7.91666666666666629659e-01  3.75000000000000000000e-01  5.60886438943842491334e-01  1.53578549963739874329e-03
8.33333333333333370341e-01  3.75000000000000000000e-01  4.60648617663337478501e-01  1.29114859230583522987e-03
8.75000000000000000000e-01  3.75000000000000000000e-01  3.52540181881704606237e-01  1.01320871156923564271e-03
9.16666666666666629659e-01  3.75000000000000000000e-01  2.38413649210245326415e-01  7.03969184089436872398e-04
9.58333333333333370341e-01  3.75000000000000000000e-01  1.20224956232071258921e-01  3.65521216668343584821e-04
1.00000000000000000000e+00  3.75000000000000000000e-01  0.00000000000000000000e+00  1.13142611228770026067e-16
0.00000000000000000000e+00  4.16666666666666685170e-01  0.00000000000000000000e+00  0.00000000000000000000e+00
4.16666666666666643537e-02  4.16666666666666685170e-01  1.25832384192134244527e-01  2.46235880384831906653e-04
8.33333333333333287074e-02  4.16666666666666685170e-01  2.49497617006518429550e-01  5.02382993481542694525e-04
1.25000000000000000000e-01  4.16666666666666685170e-01  3.68882187689151985754e-01  7.61622925234128889116e-04
1.66666666666666657415e-01  4.16666666666666685170e-01  4.81945532243658825156e-01  1.01738090087527544014e-03
2.08333333333333342585e-01  4.16666666666666685170e-01  5.86754954817995777461e-01  1.26343151016672372577e-03
2.50000000000000000000e-01  4.16666666666666685170e-01  6.81518714093977129309e-01  1.49398779824216898504e-03
2.91666666666666685170e-01  4.16666666666666685170e-01  7.64616707111282045695e-01  1.70377364872165149023e-03
3.33333333333333314830e-01  4.16666666666666685170e-01  8.34628222611301318068e-01  1.88808112650651338527e-03
3.75000000000000000000e-01  4.16666666666666685170e-01  8.90356286007608854760e-01  2.04281482491397436974e-03
4.16666666666666685170e-01  4.16666666666666685170e-01  9.30848177053666070435e-01  2.16452483855333888130e-03
4.58333333333333314830e-01  4.16666666666666685170e-01  9.55411767671012102099e-01  2.25042927153651373118e-03
5.00000000000000000000e-01  4.16666666666666685170e-01  9.63627399773709036879e-01  2.29842651535927533502e-03
5.41666666666666629659e-01  4.16666666666666685170e-01  9.55355099898290371918e-01  2.30709704425835493424e-03
5.83333333333333370341e-01  4.16666666666666685170e-01  9.30737007668746341160e-01  2.27569422347306815624e-03
6.25000000000000000000e-01  4.16666666666666685170e-01  8.90194977228394801472e-01  2.20412360412802765808e-03
6.66666666666666629659e-01  4.16666666666666685170e-01  8.34423393362248466687e-01  2.09291037555947578852e-03
7.08333333333333370341e-01  4.16666666666666685170e-01  7.64377325701977472505e-01  1.94315505802622467968e-03
7.50000000000000000000e-01  4.16666666666666685170e-01  6.81256223740321908977e-01  1.75647815189750033937e-03