Titile = 'Poisson'  
VARIABLES = X, Y, U, Error 
zone N= 49, E = 72
DATAPACKING=POINT, ZONETYPE=FETRIANGLE
0.00000000000000000000e+00  0.00000000000000000000e+00  0.00000000000000000000e+00  0.00000000000000000000e+00
1.66666666666666657415e-01  0.00000000000000000000e+00  0.00000000000000000000e+00  0.00000000000000000000e+00
3.33333333333333314830e-01  0.00000000000000000000e+00  0.00000000000000000000e+00  0.00000000000000000000e+00
5.00000000000000000000e-01  0.00000000000000000000e+00  0.00000000000000000000e+00  0.00000000000000000000e+00
6.66666666666666629659e-01  0.00000000000000000000e+00  0.00000000000000000000e+00  0.00000000000000000000e+00
8.33333333333333370341e-01  0.00000000000000000000e+00  0.00000000000000000000e+00  0.00000000000000000000e+00
1.00000000000000000000e+00  0.00000000000000000000e+00  0.00000000000000000000e+00  0.00000000000000000000e+00
0.00000000000000000000e+00  1.66666666666666657415e-01  0.00000000000000000000e+00  0.00000000000000000000e+00
1.66666666666666657415e-01  1.66666666666666657415e-01  2.45382462321621724888e-01  4.61753767837821960107e-03
3.33333333333333314830e-01  1.66666666666666657415e-01  4.20248304479810819156e-01  1.27643974124084236266e-02
5.00000000000000000000e-01  1.66666666666666657415e-01  4.81002439424133454438e-01  1.89975605758664900513e-02
6.66666666666666629659e-01  1.66666666666666657415e-01  4.12872359167359481713e-01  2.01403427248598720922e-02
8.33333333333333370341e-01  1.66666666666666657415e-01  2.35619977102511646283e-01  1.43800228974882982058e-02
1.00000000000000000000e+00  1.66666666666666657415e-01  0.00000000000000000000e+00  6.12323399573676480327e-17
0.00000000000000000000e+00  3.33333333333333314830e-01  0.00000000000000000000e+00  0.00000000000000000000e+00
1.66666666666666657415e-01  3.33333333333333314830e-01  4.20248304479810819156e-01  1.27643974124084236266e-02
3.33333333333333314830e-01  3.33333333333333314830e-01  7.24360064224793709364e-01  2.56399357752061796134e-02
5.00000000000000000000e-01  3.33333333333333314830e-01  8.33120663647170633936e-01  3.29047401372679626519e-02
6.66666666666666629659e-01  3.33333333333333314830e-01  7.18647254047606653948e-01  3.13527459523934570740e-02
8.33333333333333370341e-01  3.33333333333333314830e-01  4.12872359167359481713e-01  2.01403427248597610699e-02
1.00000000000000000000e+00  3.33333333333333314830e-01  0.00000000000000000000e+00  1.06057523872490679157e-16
0.00000000000000000000e+00  5.00000000000000000000e-01  0.00000000000000000000e+00  0.00000000000000000000e+00
1.66666666666666657415e-01  5.00000000000000000000e-01  4.81002439424133398926e-01  1.89975605758665455625e-02
3.33333333333333314830e-01  5.00000000000000000000e-01  8.33120663647170300870e-01  3.29047401372682957188e-02
5.00000000000000000000e-01  5.00000000000000000000e-01  9.62004878848267241942e-01  3.79951211517327580580e-02
6.66666666666666629659e-01  5.00000000000000000000e-01  8.33120663647170744959e-01  3.29047401372680736742e-02
8.33333333333333370341e-01  5.00000000000000000000e-01  4.81002439424133620971e-01  1.89975605758663235179e-02
1.00000000000000000000e+00  5.00000000000000000000e-01  0.00000000000000000000e+00  1.22464679914735320717e-16
0.00000000000000000000e+00  6.66666666666666629659e-01  0.00000000000000000000e+00  0.00000000000000000000e+00
1.66666666666666657415e-01  6.66666666666666629659e-01  4.12872359167359481713e-01  2.01403427248598720922e-02
3.33333333333333314830e-01  6.66666666666666629659e-01  7.18647254047606431904e-01  3.13527459523936791186e-02
5.00000000000000000000e-01  6.66666666666666629659e-01  8.33120663647170522914e-01  3.29047401372682957188e-02
6.66666666666666629659e-01  6.66666666666666629659e-01  7.24360064224793820387e-01  2.56399357752065126803e-02
8.33333333333333370341e-01  6.66666666666666629659e-01  4.20248304479810819156e-01  1.27643974124085346489e-02
1.00000000000000000000e+00  6.66666666666666629659e-01  0.00000000000000000000e+00  1.06057523872490716135e-16
0.00000000000000000000e+00  8.33333333333333370341e-01  0.00000000000000000000e+00  0.00000000000000000000e+00
1.66666666666666657415e-01  8.33333333333333370341e-01  2.35619977102511674039e-01  1.43800228974882704502e-02
3.33333333333333314830e-01  8.33333333333333370341e-01  4.12872359167359315180e-01  2.01403427248599276034e-02
5.00000000000000000000e-01  8.33333333333333370341e-01  4.81002439424133343415e-01  1.89975605758666010736e-02
6.66666666666666629659e-01  8.33333333333333370341e-01  4.20248304479810708134e-01  1.27643974124086456712e-02
8.33333333333333370341e-01  8.33333333333333370341e-01  2.45382462321621641621e-01  4.61753767837830286780e-03
1.00000000000000000000e+00  8.33333333333333370341e-01  0.00000000000000000000e+00  6.12323399573676480327e-17
0.00000000000000000000e+00  1.00000000000000000000e+00  0.00000000000000000000e+00  0.00000000000000000000e+00
1.66666666666666657415e-01  1.00000000000000000000e+00  0.00000000000000000000e+00  6.12323399573676480327e-17
3.33333333333333314830e-01  1.00000000000000000000e+00  0.00000000000000000000e+00  1.06057523872490679157e-16
5.00000000000000000000e-01  1.00000000000000000000e+00  0.00000000000000000000e+00  1.22464679914735320717e-16
6.66666666666666629659e-01  1.00000000000000000000e+00  0.00000000000000000000e+00  1.06057523872490716135e-16
8.33333333333333370341e-01  1.00000000000000000000e+00  0.00000000000000000000e+00  6.12323399573676480327e-17
1.00000000000000000000e+00  1.00000000000000000000e+00  0.00000000000000000000e+00  1.49975978266185760784e-32
1  2  9
2  3  10
3  4  11
4  5  12
5  6  13
6  7  14
8  9  16
9  10  17
10  11  18
11  12  19
12  13  20
13  14  21
15  16  23
16  17  24
17  18  25
18  19  26
19  20  27
20  21  28
22  23  30
23  24  31
24  25  32
25  26  33
26  27  34
27  28  35
29  30  37
30  31  38
31  32  39
32  33  40
33  34  41
34  35  42
36  37  44
37  38  45
38  39  46
39  40  47
40  41  48
41  42  49
1  9  8
2  10  9
3  11  10
4  12  11
5  13  12
6  14  13
8  16  15
9  17  16
10  18  17
11  19  18
12  20  19
13  21  20
15  23  22
16  24  23
17  25  24
18  26  25
19  27  26
20  28  27
22  30  29
23  31  30
24  32  31
25  33  32
26  34  33
27  35  34
29  37  36
30  38  37
31  39  38
32  40  39
33  41  40
34  42  41
36  44  43
37  45  44
38  46  45
39  47  46
40  48  47
41  49  48