Titile = 'Poisson'  
VARIABLES = X, Y, U, Error 
zone N= 25921, E = 51200
DATAPACKING=POINT, ZONETYPE=FETRIANGLE
0.00000000000000000000e+00  0.00000000000000000000e+00  0.00000000000000000000e+00  0.00000000000000000000e+00
6.25000000000000034694e-03  0.00000000000000000000e+00  0.00000000000000000000e+00  0.00000000000000000000e+00
1.25000000000000006939e-02  0.00000000000000000000e+00  0.00000000000000000000e+00  0.00000000000000000000e+00
1.87499999999999993061e-02  0.00000000000000000000e+00  0.00000000000000000000e+00  0.00000000000000000000e+00
2.50000000000000013878e-02  0.00000000000000000000e+00  0.00000000000000000000e+00  0.00000000000000000000e+00
3.12500000000000000000e-02  0.00000000000000000000e+00  0.00000000000000000000e+00  0.00000000000000000000e+00
3.74999999999999986122e-02  0.00000000000000000000e+00  0.00000000000000000000e+00  0.00000000000000000000e+00
4.37499999999999972244e-02  0.00000000000000000000e+00  0.00000000000000000000e+00  0.00000000000000000000e+00
5.00000000000000027756e-02  0.00000000000000000000e+00  0.00000000000000000000e+00  0.00000000000000000000e+00
5.62500000000000013878e-02  0.00000000000000000000e+00  0.00000000000000000000e+00  0.00000000000000000000e+00
6.25000000000000000000e-02  0.00000000000000000000e+00  0.00000000000000000000e+00  0.00000000000000000000e+00
6.87500000000000055511e-02  0.00000000000000000000e+00  0.00000000000000000000e+00  0.00000000000000000000e+00
7.49999999999999972244e-02  0.00000000000000000000e+00  0.00000000000000000000e+00  0.00000000000000000000e+00
8.12500000000000027756e-02  0.00000000000000000000e+00  0.00000000000000000000e+00  0.00000000000000000000e+00
8.74999999999999944489e-02  0.00000000000000000000e+00  0.00000000000000000000e+00  0.00000000000000000000e+00
9.37500000000000000000e-02  0.00000000000000000000e+00  0.00000000000000000000e+00  0.00000000000000000000e+00
1.00000000000000005551e-01  0.00000000000000000000e+00  0.00000000000000000000e+00  0.00000000000000000000e+00
1.06249999999999997224e-01  0.00000000000000000000e+00  0.00000000000000000000e+00  0.00000000000000000000e+00
1.12500000000000002776e-01  0.00000000000000000000e+00  0.00000000000000000000e+00  0.00000000000000000000e+00
1.18749999999999994449e-01  0.00000000000000000000e+00  0.00000000000000000000e+00  0.00000000000000000000e+00
1.25000000000000000000e-01  0.00000000000000000000e+00  0.00000000000000000000e+00  0.00000000000000000000e+00
1.31250000000000005551e-01  0.00000000000000000000e+00  0.00000000000000000000e+00  0.00000000000000000000e+00
1.37500000000000011102e-01  0.00000000000000000000e+00  0.00000000000000000000e+00  0.00000000000000000000e+00
1.43749999999999988898e-01  0.00000000000000000000e+00  0.00000000000000000000e+00  0.00000000000000000000e+00
1.49999999999999994449e-01  0.00000000000000000000e+00  0.00000000000000000000e+00  0.00000000000000000000e+00
1.56250000000000000000e-01  0.00000000000000000000e+00  0.00000000000000000000e+00  0.00000000000000000000e+00
1.62500000000000005551e-01  0.00000000000000000000e+00  0.00000000000000000000e+00  0.00000000000000000000e+00
1.68750000000000011102e-01  0.00000000000000000000e+00  0.00000000000000000000e+00  0.00000000000000000000e+00
1.74999999999999988898e-01  0.00000000000000000000e+00  0.00000000000000000000e+00  0.00000000000000000000e+00
1.81249999999999994449e-01  0.00000000000000000000e+00  0.00000000000000000000e+00  0.00000000000000000000e+00
1.87500000000000000000e-01  0.00000000000000000000e+00  0.00000000000000000000e+00  0.00000000000000000000e+00
1.93750000000000005551e-01  0.00000000000000000000e+00  0.00000000000000000000e+00  0.00000000000000000000e+00
2.00000000000000011102e-01  0.00000000000000000000e+00  0.00000000000000000000e+00  0.00000000000000000000e+00
2.06249999999999988898e-01  0.00000000000000000000e+00  0.00000000000000000000e+00  0.00000000000000000000e+00
2.12499999999999994449e-01  0.00000000000000000000e+00  0.00000000000000000000e+00  0.00000000000000000000e+00
2.18750000000000000000e-01  0.00000000000000000000e+00  0.00000000000000000000e+00  0.00000000000000000000e+00
2.25000000000000005551e-01  0.00000000000000000000e+00  0.00000000000000000000e+00  0.00000000000000000000e+00
2.31250000000000011102e-01  0.00000000000000000000e+00  0.00000000000000000000e+00  0.00000000000000000000e+00
2.37499999999999988898e-01  0.00000000000000000000e+00  0.00000000000000000000e+00  0.00000000000000000000e+00
2.43749999999999994449e-01  0.00000000000000000000e+00  0.00000000000000000000e+00  0.00000000000000000000e+00
2.50000000000000000000e-01  0.00000000000000000000e+00  0.00000000000000000000e+00  0.00000000000000000000e+00
2.56249999999999977796e-01  0.00000000000000000000e+00  0.00000000000000000000e+00  0.00000000000000000000e+00
2.62500000000000011102e-01  0.00000000000000000000e+00  0.00000000000000000000e+00  0.00000000000000000000e+00
2.68749999999999988898e-01  0.00000000000000000000e+00  0.00000000000000000000e+00  0.00000000000000000000e+00
2.75000000000000022204e-01  0.00000000000000000000e+00  0.00000000000000000000e+00  0.00000000000000000000e+00
2.81250000000000000000e-01  0.00000000000000000000e+00  0.00000000000000000000e+00  0.00000000000000000000e+00
2.87499999999999977796e-01  0.00000000000000000000e+00  0.00000000000000000000e+00  0.00000000000000000000e+00
2.93750000000000011102e-01  0.00000000000000000000e+00  0.00000000000000000000e+00  0.00000000000000000000e+00
2.99999999999999988898e-01  0.00000000000000000000e+00  0.00000000000000000000e+00  0.00000000000000000000e+00
3.06250000000000022204e-01  0.00000000000000000000e+00  0.00000000000000000000e+00  0.00000000000000000000e+00
3.12500000000000000000e-01  0.00000000000000000000e+00  0.00000000000000000000e+00  0.00000000000000000000e+00
3.18749999999999977796e-01  0.00000000000000000000e+00  0.00000000000000000000e+00  0.00000000000000000000e+00
3.25000000000000011102e-01  0.00000000000000000000e+00  0.00000000000000000000e+00  0.00000000000000000000e+00
3.31249999999999988898e-01  0.00000000000000000000e+00  0.00000000000000000000e+00  0.00000000000000000000e+00
3.37500000000000022204e-01  0.00000000000000000000e+00  0.00000000000000000000e+00  0.00000000000000000000e+00
3.43750000000000000000e-01  0.00000000000000000000e+00  0.00000000000000000000e+00  0.00000000000000000000e+00
3.49999999999999977796e-01  0.00000000000000000000e+00  0.00000000000000000000e+00  0.00000000000000000000e+00
3.56250000000000011102e-01  0.00000000000000000000e+00  0.00000000000000000000e+00  0.00000000000000000000e+00
3.62499999999999988898e-01  0.00000000000000000000e+00  0.00000000000000000000e+00  0.00000000000000000000e+00
3.68750000000000022204e-01  0.00000000000000000000e+00  0.00000000000000000000e+00  0.00000000000000000000e+00
3.75000000000000000000e-01  0.00000000000000000000e+00  0.00000000000000000000e+00  0.00000000000000000000e+00
3.81249999999999977796e-01  0.00000000000000000000e+00  0.00000000000000000000e+00  0.00000000000000000000e+00
3.87500000000000011102e-01  0.00000000000000000000e+00  0.00000000000000000000e+00  0.00000000000000000000e+00
3.93749999999999988898e-01  0.00000000000000000000e+00  0.00000000000000000000e+00  0.00000000000000000000e+00
4.00000000000000022204e-01  0.00000000000000000000e+00  0.00000000000000000000e+00  0.00000000000000000000e+00
4.06250000000000000000e-01  0.00000000000000000000e+00  0.00000000000000000000e+00  0.00000000000000000000e+00
4.12499999999999977796e-01  0.00000000000000000000e+00  0.00000000000000000000e+00  0.00000000000000000000e+00
4.18750000000000011102e-01  0.00000000000000000000e+00  0.00000000000000000000e+00  0.00000000000000000000e+00
4.24999999999999988898e-01  0.00000000000000000000e+00  0.00000000000000000000e+00  0.00000000000000000000e+00
4.31250000000000022204e-01  0.00000000000000000000e+00  0.00000000000000000000e+00  0.00000000000000000000e+00
4.37500000000000000000e-01  0.00000000000000000000e+00  0.00000000000000000000e+00  0.00000000000000000000e+00
4.43749999999999977796e-01  0.00000000000000000000e+00  0.00000000000000000000e+00  0.00000000000000000000e+00
4.50000000000000011102e-01  0.00000000000000000000e+00  0.00000000000000000000e+00  0.00000000000000000000e+00
4.56249999999999988898e-01  0.00000000000000000000e+00  0.00000000000000000000e+00  0.00000000000000000000e+00
4.62500000000000022204e-01  0.00000000000000000000e+00  0.00000000000000000000e+00  0.00000000000000000000e+00
4.68750000000000000000e-01  0.00000000000000000000e+00  0.00000000000000000000e+00  0.00000000000000000000e+00
4.74999999999999977796e-01  0.00000000000000000000e+00  0.00000000000000000000e+00  0.00000000000000000000e+00
4.81250000000000011102e-01  0.00000000000000000000e+00  0.00000000000000000000e+00  0.00000000000000000000e+00
4.87499999999999988898e-01  0.00000000000000000000e+00  0.00000000000000000000e+00  0.00000000000000000000e+00
4.93750000000000022204e-01  0.00000000000000000000e+00  0.00000000000000000000e+00  0.00000000000000000000e+00
5.00000000000000000000e-01  0.00000000000000000000e+00  0.00000000000000000000e+00  0.00000000000000000000e+00
5.06249999999999977796e-01  0.00000000000000000000e+00  0.00000000000000000000e+00  0.00000000000000000000e+00
5.12499999999999955591e-01  0.00000000000000000000e+00  0.00000000000000000000e+00  0.00000000000000000000e+00
5.18750000000000044409e-01  0.00000000000000000000e+00  0.00000000000000000000e+00  0.00000000000000000000e+00
5.25000000000000022204e-01  0.00000000000000000000e+00  0.00000000000000000000e+00  0.00000000000000000000e+00
5.31250000000000000000e-01  0.00000000000000000000e+00  0.00000000000000000000e+00  0.00000000000000000000e+00
5.37499999999999977796e-01  0.00000000000000000000e+00  0.00000000000000000000e+00  0.00000000000000000000e+00
5.43749999999999955591e-01  0.00000000000000000000e+00  0.00000000000000000000e+00  0.00000000000000000000e+00
5.50000000000000044409e-01  0.00000000000000000000e+00  0.00000000000000000000e+00  0.00000000000000000000e+00
5.56250000000000022204e-01  0.00000000000000000000e+00  0.00000000000000000000e+00  0.00000000000000000000e+00
5.62500000000000000000e-01  0.00000000000000000000e+00  0.00000000000000000000e+00  0.00000000000000000000e+00
5.68749999999999977796e-01  0.00000000000000000000e+00  0.00000000000000000000e+00  0.00000000000000000000e+00
5.74999999999999955591e-01  0.00000000000000000000e+00  0.00000000000000000000e+00  0.00000000000000000000e+00
5.81250000000000044409e-01  0.00000000000000000000e+00  0.00000000000000000000e+00  0.00000000000000000000e+00
5.87500000000000022204e-01  0.00000000000000000000e+00  0.00000000000000000000e+00  0.00000000000000000000e+00
5.93750000000000000000e-01  0.00000000000000000000e+00  0.00000000000000000000e+00  0.00000000000000000000e+00
5.99999999999999977796e-01  0.00000000000000000000e+00  0.00000000000000000000e+00  0.00000000000000000000e+00
6.06249999999999955591e-01  0.00000000000000000000e+00  0.00000000000000000000e+00  0.00000000000000000000e+00
6.12500000000000044409e-01  0.00000000000000000000e+00  0.00000000000000000000e+00  0.00000000000000000000e+00
6.18750000000000022204e-01  0.00000000000000000000e+00  0.00000000000000000000e+00  0.00000000000000000000e+00
6.25000000000000000000e-01  0.00000000000000000000e+00  0.00000000000000000000e+00  0.00000000000000000000e+00
6.31249999999999977796e-01  0.00000000000000000000e+00  0.00000000000000000000e+00  0.00000000000000000000e+00
6.37499999999999955591e-01  0.00000000000000000000e+00  0.00000000000000000000e+00  0.00000000000000000000e+00
6.43750000000000044409e-01  0.00000000000000000000e+00  0.00000000000000000000e+00  0.00000000000000000000e+00
6.50000000000000022204e-01  0.00000000000000000000e+00  0.00000000000000000000e+00  0.00000000000000000000e+00
6.56250000000000000000e-01  0.00000000000000000000e+00  0.00000000000000000000e+00  0.00000000000000000000e+00
6.62499999999999977796e-01  0.00000000000000000000e+00  0.00000000000000000000e+00  0.00000000000000000000e+00
6.68749999999999955591e-01  0.00000000000000000000e+00  0.00000000000000000000e+00  0.00000000000000000000e+00
6.75000000000000044409e-01  0.00000000000000000000e+00  0.00000000000000000000e+00  0.00000000000000000000e+00
6.81250000000000022204e-01  0.00000000000000000000e+00  0.00000000000000000000e+00  0.00000000000000000000e+00
6.87500000000000000000e-01  0.00000000000000000000e+00  0.00000000000000000000e+00  0.00000000000000000000e+00
6.93749999999999977796e-01  0.00000000000000000000e+00  0.00000000000000000000e+00  0.00000000000000000000e+00
6.99999999999999955591e-01  0.00000000000000000000e+00  0.00000000000000000000e+00  0.00000000000000000000e+00
7.06250000000000044409e-01  0.00000000000000000000e+00  0.00000000000000000000e+00  0.00000000000000000000e+00
7.12500000000000022204e-01  0.00000000000000000000e+00  0.00000000000000000000e+00  0.00000000000000000000e+00
7.18750000000000000000e-01  0.00000000000000000000e+00  0.00000000000000000000e+00  0.00000000000000000000e+00
7.24999999999999977796e-01  0.00000000000000000000e+00  0.00000000000000000000e+00  0.00000000000000000000e+00
7.31249999999999955591e-01  0.00000000000000000000e+00  0.00000000000000000000e+00  0.00000000000000000000e+00
7.37500000000000044409e-01  0.00000000000000000000e+00  0.00000000000000000000e+00  0.00000000000000000000e+00
7.43750000000000022204e-01  0.00000000000000000000e+00  0.00000000000000000000e+00  0.00000000000000000000e+00
7.50000000000000000000e-01  0.00000000000000000000e+00  0.00000000000000000000e+00  0.00000000000000000000e+00
7.56249999999999977796e-01  0.00000000000000000000e+00  0.00000000000000000000e+00  0.00000000000000000000e+00
7.62499999999999955591e-01  0.00000000000000000000e+00  0.00000000000000000000e+00  0.00000000000000000000e+00
7.68750000000000044409e-01  0.00000000000000000000e+00  0.00000000000000000000e+00  0.00000000000000000000e+00
7.75000000000000022204e-01  0.00000000000000000000e+00  0.00000000000000000000e+00  0.00000000000000000000e+00
7.81250000000000000000e-01  0.00000000000000000000e+00  0.00000000000000000000e+00  0.00000000000000000000e+00
7.87499999999999977796e-01  0.00000000000000000000e+00  0.00000000000000000000e+00  0.00000000000000000000e+00
7.93749999999999955591e-01  0.00000000000000000000e+00  0.00000000000000000000e+00  0.00000000000000000000e+00
8.00000000000000044409e-01  0.00000000000000000000e+00  0.00000000000000000000e+00  0.00000000000000000000e+00
8.06250000000000022204e-01  0.00000000000000000000e+00  0.00000000000000000000e+00  0.00000000000000000000e+00
8.12500000000000000000e-01  0.00000000000000000000e+00  0.00000000000000000000e+00  0.00000000000000000000e+00
8.18749999999999977796e-01  0.00000000000000000000e+00  0.00000000000000000000e+00  0.00000000000000000000e+00
8.24999999999999955591e-01  0.00000000000000000000e+00  0.00000000000000000000e+00  0.00000000000000000000e+00
8.31250000000000044409e-01  0.00000000000000000000e+00  0.00000000000000000000e+00  0.00000000000000000000e+00
8.37500000000000022204e-01  0.00000000000000000000e+00  0.00000000000000000000e+00  0.00000000000000000000e+00
8.43750000000000000000e-01  0.00000000000000000000e+00  0.00000000000000000000e+00  0.00000000000000000000e+00
8.49999999999999977796e-01  0.00000000000000000000e+00  0.00000000000000000000e+00  0.00000000000000000000e+00
8.56249999999999955591e-01  0.00000000000000000000e+00  0.00000000000000000000e+00  0.00000000000000000000e+00
8.62500000000000044409e-01  0.00000000000000000000e+00  0.00000000000000000000e+00  0.00000000000000000000e+00
8.68750000000000022204e-01  0.00000000000000000000e+00  0.00000000000000000000e+00  0.00000000000000000000e+00
8.75000000000000000000e-01  0.00000000000000000000e+00  0.00000000000000000000e+00  0.00000000000000000000e+00
8.81249999999999977796e-01  0.00000000000000000000e+00  0.00000000000000000000e+00  0.00000000000000000000e+00
8.87499999999999955591e-01  0.00000000000000000000e+00  0.00000000000000000000e+00  0.00000000000000000000e+00
8.93750000000000044409e-01  0.00000000000000000000e+00  0.00000000000000000000e+00  0.00000000000000000000e+00
9.00000000000000022204e-01  0.00000000000000000000e+00  0.00000000000000000000e+00  0.00000000000000000000e+00
9.06250000000000000000e-01  0.00000000000000000000e+00  0.00000000000000000000e+00  0.00000000000000000000e+00
9.12499999999999977796e-01  0.00000000000000000000e+00  0.00000000000000000000e+00  0.00000000000000000000e+00
9.18749999999999955591e-01  0.00000000000000000000e+00  0.00000000000000000000e+00  0.00000000000000000000e+00
9.25000000000000044409e-01  0.00000000000000000000e+00  0.00000000000000000000e+00  0.00000000000000000000e+00
9.31250000000000022204e-01  0.00000000000000000000e+00  0.00000000000000000000e+00  0.00000000000000000000e+00
9.37500000000000000000e-01  0.00000000000000000000e+00  0.00000000000000000000e+00  0.00000000000000000000e+00
9.43749999999999977796e-01  0.00000000000000000000e+00  0.00000000000000000000e+00  0.00000000000000000000e+00
9.49999999999999955591e-01  0.00000000000000000000e+00  0.00000000000000000000e+00  0.00000000000000000000e+00
9.56250000000000044409e-01  0.00000000000000000000e+00  0.00000000000000000000e+00  0.00000000000000000000e+00
9.62500000000000022204e-01  0.00000000000000000000e+00  0.00000000000000000000e+00  0.00000000000000000000e+00
9.68750000000000000000e-01  0.00000000000000000000e+00  0.00000000000000000000e+00  0.00000000000000000000e+00
9.74999999999999977796e-01  0.00000000000000000000e+00  0.00000000000000000000e+00  0.00000000000000000000e+00
9.81249999999999955591e-01  0.00000000000000000000e+00  0.00000000000000000000e+00  0.00000000000000000000e+00
9.87500000000000044409e-01  0.00000000000000000000e+00  0.00000000000000000000e+00  0.00000000000000000000e+00
9.93750000000000022204e-01  0.00000000000000000000e+00  0.00000000000000000000e+00  0.00000000000000000000e+00
1.00000000000000000000e+00  0.00000000000000000000e+00  0.00000000000000000000e+00  0.00000000000000000000e+00
0.00000000000000000000e+00  6.25000000000000034694e-03  0.00000000000000000000e+00  0.00000000000000000000e+00
6.25000000000000034694e-03  6.25000000000000034694e-03  3.85537817128054488558e-04  5.59374895219380031952e-08
1.25000000000000006939e-02  6.25000000000000034694e-03  7.70910523742460943725e-04  9.53750679794735864436e-08
1.87499999999999993061e-02  6.25000000000000034694e-03  1.15597610266558606731e-03  1.24848868106883573170e-07
2.50000000000000013878e-02  6.25000000000000034694e-03  1.54058919339691044285e-03  1.47437137407039134396e-07
3.12500000000000000000e-02  6.25000000000000034694e-03  1.92460321792277616951e-03  1.64828821935976421731e-07
3.74999999999999986122e-02  6.25000000000000034694e-03  2.30787118234073058975e-03  1.78068030911616992373e-07
4.37499999999999972244e-02  6.25000000000000034694e-03  2.69024603948463288117e-03  1.87859590348570665297e-07
5.00000000000000027756e-02  6.25000000000000034694e-03  3.07158088769487244013e-03  1.94710852070151263504e-07
5.62500000000000013878e-02  6.25000000000000034694e-03  3.45172910082315988547e-03  1.99004869521658689369e-07
6.25000000000000000000e-02  6.25000000000000034694e-03  3.83054442609654429569e-03  2.01041586939641747644e-07
6.87500000000000055511e-02  6.25000000000000034694e-03  4.20788106547472038482e-03  2.01062697796627887215e-07
7.49999999999999972244e-02  6.25000000000000034694e-03  4.58359374781539506694e-03  1.99267509074993465212e-07
8.12500000000000027756e-02  6.25000000000000034694e-03  4.95753779554810192903e-03  1.95823533445139974507e-07
8.74999999999999944489e-02  6.25000000000000034694e-03  5.32956918785414471285e-03  1.90873828681895063575e-07
9.37500000000000000000e-02  6.25000000000000034694e-03  5.69954462148951346290e-03  1.84542242656453303606e-07
1.00000000000000005551e-01  6.25000000000000034694e-03  6.06732156992627075925e-03  1.76937260848095134769e-07
1.06249999999999997224e-01  6.25000000000000034694e-03  6.43275834122718475488e-03  1.68154892466951255692e-07
1.12500000000000002776e-01  6.25000000000000034694e-03  6.79571413491462592016e-03  1.58280877396964336778e-07
1.18749999999999994449e-01  6.25000000000000034694e-03  7.15604909800147005045e-03  1.47392402781963693936e-07
1.25000000000000000000e-01  6.25000000000000034694e-03  7.51362438029179804944e-03  1.35559457974804287161e-07
1.31250000000000005551e-01  6.25000000000000034694e-03  7.86830218902092801136e-03  1.22845918200040205015e-07
1.37500000000000011102e-01  6.25000000000000034694e-03  8.21994584287877132212e-03  1.09310421545980029912e-07
1.43749999999999988898e-01  6.25000000000000034694e-03  8.56841982544292654622e-03  9.50070862103941093935e-08
1.49999999999999994449e-01  6.25000000000000034694e-03  8.91358983803587287542e-03  7.99861026596487834084e-08
1.56250000000000000000e-01  6.25000000000000034694e-03  9.25532285201208573810e-03  6.42942267134460898603e-08
1.62500000000000005551e-01  6.25000000000000034694e-03  9.59348716047518645933e-03  4.79751935834188403263e-08
1.68750000000000011102e-01  6.25000000000000034694e-03  9.92795242942002588438e-03  3.10700675812403126486e-08
1.74999999999999988898e-01  6.25000000000000034694e-03  1.02585897482925618440e-02  1.36175399290117127293e-08
1.81249999999999994449e-01  6.25000000000000034694e-03  1.05852716799570770179e-02  4.34581641332865142857e-09
1.87500000000000000000e-01  6.25000000000000034694e-03  1.09078723100589965872e-02  2.27853274754885593012e-08
1.93750000000000005551e-01  6.25000000000000034694e-03  1.12262672957704513765e-02  4.16680284529707956054e-08
2.00000000000000011102e-01  6.25000000000000034694e-03  1.15403339139045872652e-02  6.09624986463996876296e-08
2.06249999999999988898e-01  6.25000000000000034694e-03  1.18499511083835114278e-02  8.06387177362116736035e-08
2.12499999999999994449e-01  6.25000000000000034694e-03  1.21549995370459733290e-02  1.00667939113147086871e-07
2.18750000000000000000e-01  6.25000000000000034694e-03  1.24553616177777611018e-02  1.21022579232382687664e-07
2.25000000000000005551e-01  6.25000000000000034694e-03  1.27509215739508279669e-02  1.41676119263384192593e-07
2.31250000000000011102e-01  6.25000000000000034694e-03  1.30415654791544675939e-02  1.62603018232301832491e-07
2.37499999999999988898e-01  6.25000000000000034694e-03  1.33271813012029657908e-02  1.83778636021064700756e-07
2.43749999999999994449e-01  6.25000000000000034694e-03  1.36076589454046468358e-02  2.05179164356611432041e-07
2.50000000000000000000e-01  6.25000000000000034694e-03  1.38828902970759993779e-02  2.26781565462394474331e-07
2.56249999999999977796e-01  6.25000000000000034694e-03  1.41527692632858886901e-02  2.48563516999991684919e-07
2.62500000000000011102e-01  6.25000000000000034694e-03  1.44171918138144925653e-02  2.70503362580915007740e-07
2.68749999999999988898e-01  6.25000000000000034694e-03  1.46760560213115998779e-02  2.92580067440956215208e-07
2.75000000000000022204e-01  6.25000000000000034694e-03  1.49292621006397729921e-02  3.14773178338584314062e-07
2.81250000000000000000e-01  6.25000000000000034694e-03  1.51767124473875456014e-02  3.37062787288816556597e-07
2.87499999999999977796e-01  6.25000000000000034694e-03  1.54183116755381762614e-02  3.59429498860211471545e-07
2.93750000000000011102e-01  6.25000000000000034694e-03  1.56539666542799237037e-02  3.81854400502423807495e-07
2.99999999999999988898e-01  6.25000000000000034694e-03  1.58835865439440684921e-02  4.04319035505334989367e-07
3.06250000000000022204e-01  6.25000000000000034694e-03  1.61070828310566210861e-02  4.26805378830885651098e-07
3.12500000000000000000e-01  6.25000000000000034694e-03  1.63243693624917883545e-02  4.49295814230338264039e-07
3.18749999999999977796e-01  6.25000000000000034694e-03  1.65353623787122365474e-02  4.71773114438939211723e-07
3.25000000000000011102e-01  6.25000000000000034694e-03  1.67399805460854735062e-02  4.94220422340291287711e-07
3.31249999999999988898e-01  6.25000000000000034694e-03  1.69381449882629701864e-02  5.16621233986880312727e-07
3.37500000000000022204e-01  6.25000000000000034694e-03  1.71297793166102288454e-02  5.38959383244302925320e-07
3.43750000000000000000e-01  6.25000000000000034694e-03  1.73148096596769142386e-02  5.61219027160608785465e-07
3.49999999999999977796e-01  6.25000000000000034694e-03  1.74931646916943635273e-02  5.83384633420780396307e-07
3.56250000000000011102e-01  6.25000000000000034694e-03  1.76647756600915410707e-02  6.05440967811621266748e-07
3.62499999999999988898e-01  6.25000000000000034694e-03  1.78295764120169758504e-02  6.27373083577492662855e-07
3.68750000000000022204e-01  6.25000000000000034694e-03  1.79875034198583930167e-02  6.49166310765642018410e-07
3.75000000000000000000e-01  6.25000000000000034694e-03  1.81384958057482330307e-02  6.70806247417277123901e-07
3.81249999999999977796e-01  6.25000000000000034694e-03  1.82824953650481160372e-02  6.92278750279856636141e-07
3.87500000000000011102e-01  6.25000000000000034694e-03  1.84194465888010659727e-02  7.13569927004303883322e-07
3.93749999999999988898e-01  6.25000000000000034694e-03  1.85492966851438303988e-02  7.34666128942434992766e-07
4.00000000000000022204e-01  6.25000000000000034694e-03  1.86719955996721212466e-02  7.55553943451725551483e-07
4.06250000000000000000e-01  6.25000000000000034694e-03  1.87874960347482952705e-02  7.76220188288684331823e-07
4.12499999999999977796e-01  6.25000000000000034694e-03  1.88957534677474149609e-02  7.96651904787920583928e-07
4.18750000000000011102e-01  6.25000000000000034694e-03  1.89967261682315521898e-02  8.16836352866140424922e-07
4.24999999999999988898e-01  6.25000000000000034694e-03  1.90903752140486916711e-02  8.36761004912450756521e-07
4.31250000000000022204e-01  6.25000000000000034694e-03  1.91766645063470436705e-02  8.56413541527878408033e-07
4.37500000000000000000e-01  6.25000000000000034694e-03  1.92555607835019106100e-02  8.75781846206707959013e-07
4.43749999999999977796e-01  6.25000000000000034694e-03  1.93270336339476205001e-02  8.94854001076000882264e-07
4.50000000000000011102e-01  6.25000000000000034694e-03  1.93910555079108981591e-02  9.13618282336742248972e-07
4.56249999999999988898e-01  6.25000000000000034694e-03  1.94476017280401161647e-02  9.32063156496021338882e-07
4.62500000000000022204e-01  6.25000000000000034694e-03  1.94966504989279934557e-02  9.50177275721442171630e-07
4.68750000000000000000e-01  6.25000000000000034694e-03  1.95381829155216249494e-02  9.67949474722090696943e-07
4.74999999999999977796e-01  6.25000000000000034694e-03  1.95721829704195472710e-02  9.85368766234784310143e-07
4.81250000000000011102e-01  6.25000000000000034694e-03  1.95986375600503588690e-02  1.00242433780789452769e-06
4.87499999999999988898e-01  6.25000000000000034694e-03  1.96175364897326169611e-02  1.01910554774556350033e-06
4.93750000000000022204e-01  6.25000000000000034694e-03  1.96288724776125522720e-02  1.03540192174927936364e-06
5.00000000000000000000e-01  6.25000000000000034694e-03  1.96326411574791713510e-02  1.05130314912924016646e-06
5.06249999999999977796e-01  6.25000000000000034694e-03  1.96288410804551609334e-02  1.06679907914061788965e-06
5.12499999999999955591e-01  6.25000000000000034694e-03  1.96174737155630600494e-02  1.08187971730247523006e-06
5.18750000000000044409e-01  6.25000000000000034694e-03  1.95985434491666235535e-02  1.09653522154321003690e-06
5.25000000000000022204e-01  6.25000000000000034694e-03  1.95720575832872556443e-02  1.11075589852641098965e-06
5.31250000000000000000e-01  6.25000000000000034694e-03  1.95380263327968560494e-02  1.12453219949446014958e-06
5.37499999999999977796e-01  6.25000000000000034694e-03  1.94964628214872454093e-02  1.13785471646948854740e-06
5.43749999999999955591e-01  6.25000000000000034694e-03  1.94473830770189801131e-02  1.15071417763207284324e-06
5.50000000000000044409e-01  6.25000000000000034694e-03  1.93908060247499208772e-02  1.16310144331055465017e-06
5.56250000000000022204e-01  6.25000000000000034694e-03  1.93267534804474963583e-02  1.17500750120014263445e-06
5.62500000000000000000e-01  6.25000000000000034694e-03  1.92552501418865040783e-02  1.18642346161323963827e-06
5.68749999999999977796e-01  6.25000000000000034694e-03  1.91763235793360950487e-02  1.19734055247650017506e-06
5.74999999999999955591e-01  6.25000000000000034694e-03  1.90900042249396335869e-02  1.20775011397053488871e-06
5.81250000000000044409e-01  6.25000000000000034694e-03  1.89963253609914915765e-02  1.21764359292675372615e-06
5.87500000000000022204e-01  6.25000000000000034694e-03  1.88953231071150307141e-02  1.22701253717216740569e-06
5.93750000000000000000e-01  6.25000000000000034694e-03  1.87870364063479101946e-02  1.23584858867376023994e-06
5.99999999999999977796e-01  6.25000000000000034694e-03  1.86715070101378666223e-02  1.24414347770634980961e-06
6.06249999999999955591e-01  6.25000000000000034694e-03  1.85487794622577750747e-02  1.25188901500122851118e-06
6.12500000000000044409e-01  6.25000000000000034694e-03  1.84189010816432872930e-02  1.25907708477951407744e-06
6.18750000000000022204e-01  6.25000000000000034694e-03  1.82819219441618663335e-02  1.26569963652956030131e-06
6.25000000000000000000e-01  6.25000000000000034694e-03  1.81378948633192718654e-02  1.27174867637844246637e-06
6.31249999999999977796e-01  6.25000000000000034694e-03  1.79868753699110074662e-02  1.27721625815119255165e-06
6.37499999999999955591e-01  6.25000000000000034694e-03  1.78289216906272196539e-02  1.28209447333715864659e-06
6.43750000000000044409e-01  6.25000000000000034694e-03  1.76640947256183969416e-02  1.28637544095228095742e-06
6.50000000000000022204e-01  6.25000000000000034694e-03  1.74924580250317915353e-02  1.29005129599624179804e-06
6.56250000000000000000e-01  6.25000000000000034694e-03  1.73140777645264531959e-02  1.29311417762512093077e-06
6.62499999999999977796e-01  6.25000000000000034694e-03  1.71290227197772350343e-02  1.29555621624158345817e-06
6.68749999999999955591e-01  6.25000000000000034694e-03  1.69373642399775307943e-02  1.29736951942974187979e-06