Titile = 'Poisson'  
VARIABLES = X, Y, U, Error 
zone N= 441, E = 800
DATAPACKING=POINT, ZONETYPE=FETRIANGLE
0.00000000000000000000e+00  0.00000000000000000000e+00  0.00000000000000000000e+00  0.00000000000000000000e+00
5.00000000000000027756e-02  0.00000000000000000000e+00  0.00000000000000000000e+00  0.00000000000000000000e+00
1.00000000000000005551e-01  0.00000000000000000000e+00  0.00000000000000000000e+00  0.00000000000000000000e+00
1.49999999999999994449e-01  0.00000000000000000000e+00  0.00000000000000000000e+00  0.00000000000000000000e+00
2.00000000000000011102e-01  0.00000000000000000000e+00  0.00000000000000000000e+00  0.00000000000000000000e+00
2.50000000000000000000e-01  0.00000000000000000000e+00  0.00000000000000000000e+00  0.00000000000000000000e+00
2.99999999999999988898e-01  0.00000000000000000000e+00  0.00000000000000000000e+00  0.00000000000000000000e+00
3.49999999999999977796e-01  0.00000000000000000000e+00  0.00000000000000000000e+00  0.00000000000000000000e+00
4.00000000000000022204e-01  0.00000000000000000000e+00  0.00000000000000000000e+00  0.00000000000000000000e+00
4.50000000000000011102e-01  0.00000000000000000000e+00  0.00000000000000000000e+00  0.00000000000000000000e+00
5.00000000000000000000e-01  0.00000000000000000000e+00  0.00000000000000000000e+00  0.00000000000000000000e+00
5.50000000000000044409e-01  0.00000000000000000000e+00  0.00000000000000000000e+00  0.00000000000000000000e+00
5.99999999999999977796e-01  0.00000000000000000000e+00  0.00000000000000000000e+00  0.00000000000000000000e+00
6.50000000000000022204e-01  0.00000000000000000000e+00  0.00000000000000000000e+00  0.00000000000000000000e+00
6.99999999999999955591e-01  0.00000000000000000000e+00  0.00000000000000000000e+00  0.00000000000000000000e+00
7.50000000000000000000e-01  0.00000000000000000000e+00  0.00000000000000000000e+00  0.00000000000000000000e+00
8.00000000000000044409e-01  0.00000000000000000000e+00  0.00000000000000000000e+00  0.00000000000000000000e+00
8.49999999999999977796e-01  0.00000000000000000000e+00  0.00000000000000000000e+00  0.00000000000000000000e+00
9.00000000000000022204e-01  0.00000000000000000000e+00  0.00000000000000000000e+00  0.00000000000000000000e+00
9.49999999999999955591e-01  0.00000000000000000000e+00  0.00000000000000000000e+00  0.00000000000000000000e+00
1.00000000000000000000e+00  0.00000000000000000000e+00  0.00000000000000000000e+00  0.00000000000000000000e+00
0.00000000000000000000e+00  5.00000000000000027756e-02  0.00000000000000000000e+00  0.00000000000000000000e+00
5.00000000000000027756e-02  5.00000000000000027756e-02  2.45230267496963638685e-02  5.12848972731502761313e-05
1.00000000000000005551e-01  5.00000000000000027756e-02  4.83797335438233278015e-02  3.88253404383989697557e-05
1.49999999999999994449e-01  5.00000000000000027756e-02  7.10111453576897505569e-02  8.61560241331715825908e-06
2.00000000000000011102e-01  5.00000000000000027756e-02  9.18735154691351502132e-02  7.63560317750267003589e-05
2.50000000000000000000e-01  5.00000000000000027756e-02  1.10460507520660791703e-01  1.55363520576351499258e-04
2.99999999999999988898e-01  5.00000000000000027756e-02  1.26318896342252184883e-01  2.39244381248199244894e-04
3.49999999999999977796e-01  5.00000000000000027756e-02  1.39061097040631576061e-01  3.23031918131266859717e-04
4.00000000000000022204e-01  5.00000000000000027756e-02  1.48375372402104188652e-01  4.02644947553765231163e-04
4.50000000000000011102e-01  5.00000000000000027756e-02  1.54033873411800303899e-01  4.74623775673421732790e-04
5.00000000000000000000e-01  5.00000000000000027756e-02  1.55898475558859106460e-01  5.35989481371762499506e-04
5.50000000000000044409e-01  5.00000000000000027756e-02  1.53924339840282142777e-01  5.84157347191555098576e-04
5.99999999999999977796e-01  5.00000000000000027756e-02  1.48161149719363199884e-01  6.16867630294781754685e-04
6.50000000000000022204e-01  5.00000000000000027756e-02  1.38752020627296968058e-01  6.32108331465902617552e-04
6.99999999999999955591e-01  5.00000000000000027756e-02  1.25930135906276580160e-01  6.28004817223803968318e-04
7.50000000000000000000e-01  5.00000000000000027756e-02  1.10013230967968403395e-01  6.02640073268753684310e-04
8.00000000000000044409e-01  5.00000000000000027756e-02  9.13961341076167388398e-02  5.53737393293451951592e-04
8.49999999999999977796e-01  5.00000000000000027756e-02  7.05417082975101916720e-02  4.78052662592889920923e-04
9.00000000000000022204e-01  5.00000000000000027756e-02  4.79708231458463238428e-02  3.70085057538618866779e-04
9.49999999999999955591e-01  5.00000000000000027756e-02  2.42527624995789344020e-02  2.18979352844296537572e-04
1.00000000000000000000e+00  5.00000000000000027756e-02  0.00000000000000000000e+00  1.91576966887847255886e-17
0.00000000000000000000e+00  1.00000000000000005551e-01  0.00000000000000000000e+00  0.00000000000000000000e+00
5.00000000000000027756e-02  1.00000000000000005551e-01  4.83797335438233278015e-02  3.88253404383989697557e-05
1.00000000000000005551e-01  1.00000000000000005551e-01  9.54855550014785670054e-02  5.94781104770736313014e-06
1.49999999999999994449e-01  1.00000000000000005551e-01  1.40187096968449415035e-01  1.03682735845656015528e-04
2.00000000000000011102e-01  1.00000000000000005551e-01  1.81401893404452896341e-01  2.33738596887300698057e-04
2.50000000000000000000e-01  1.00000000000000005551e-01  2.18126594961662034766e-01  3.81417262748456886712e-04
2.99999999999999988898e-01  1.00000000000000005551e-01  2.49464444946009972215e-01  5.35555053990000029529e-04
3.49999999999999977796e-01  1.00000000000000005551e-01  2.74648940251041806526e-01  6.87217822116448218139e-04
4.00000000000000022204e-01  1.00000000000000005551e-01  2.93063626618229322585e-01  8.28999528007190455980e-04
4.50000000000000011102e-01  1.00000000000000005551e-01  3.04257846161796297046e-01  9.54636228092498040354e-04
5.00000000000000000000e-01  1.00000000000000005551e-01  3.07958213252082224631e-01  1.05878112286517112040e-03
5.50000000000000044409e-01  1.00000000000000005551e-01  3.04075627077388943587e-01  1.13685531249985150026e-03
5.99999999999999977796e-01  1.00000000000000005551e-01  2.92707704301781834744e-01  1.18492184445473380805e-03
6.50000000000000022204e-01  1.00000000000000005551e-01  2.74136614118954624608e-01  1.19954395420368564729e-03
6.99999999999999955591e-01  1.00000000000000005551e-01  2.48822411210547655980e-01  1.17758878945231626467e-03
7.50000000000000000000e-01  1.00000000000000005551e-01  2.17392086863618744230e-01  1.11592536079177517827e-03
8.00000000000000044409e-01  1.00000000000000005551e-01  1.80624698739376227108e-01  1.01093326196402544248e-03
8.49999999999999977796e-01  1.00000000000000005551e-01  1.39433109297972090967e-01  8.57670406323007838978e-04
9.00000000000000022204e-01  1.00000000000000005551e-01  9.48430879029965867577e-02  6.48414909529715366432e-04
9.49999999999999955591e-01  1.00000000000000005551e-01  4.79708231458463862928e-02  3.70085057538577233416e-04
1.00000000000000000000e+00  1.00000000000000005551e-01  0.00000000000000000000e+00  3.78436673043414994129e-17
0.00000000000000000000e+00  1.49999999999999994449e-01  0.00000000000000000000e+00  0.00000000000000000000e+00
5.00000000000000027756e-02  1.49999999999999994449e-01  7.10111453576897505569e-02  8.61560241331715825908e-06
1.00000000000000005551e-01  1.49999999999999994449e-01  1.40187096968449387280e-01  1.03682735845683771103e-04
1.49999999999999994449e-01  1.49999999999999994449e-01  2.05850285894681073184e-01  2.57087959082330508309e-04
2.00000000000000011102e-01  1.49999999999999994449e-01  2.66402259891243387013e-01  4.46660536552068165861e-04
2.50000000000000000000e-01  1.49999999999999994449e-01  3.20364885243538233262e-01  6.54875716564806698017e-04
2.99999999999999988898e-01  1.49999999999999994449e-01  3.66418449635971144041e-01  8.67579938097329250724e-04
3.49999999999999977796e-01  1.49999999999999994449e-01  4.03435416318789541457e-01  1.07308086868407315251e-03
4.00000000000000022204e-01  1.49999999999999994449e-01  4.30509061485330357666e-01  1.26156162805879379363e-03
4.50000000000000011102e-01  1.49999999999999994449e-01  4.46976409206752911540e-01  1.42471412695732713161e-03
5.00000000000000000000e-01  1.49999999999999994449e-01  4.52434997680326300706e-01  1.55550205922044826323e-03
5.50000000000000044409e-01  1.49999999999999994449e-01  4.46753134965340303886e-01  1.64798836836987927512e-03
5.99999999999999977796e-01  1.49999999999999994449e-01  4.30073444002384119855e-01  1.69717911100508711542e-03
6.50000000000000022204e-01  1.49999999999999994449e-01  4.02809653089850672192e-01  1.69884409762299792845e-03
6.99999999999999955591e-01  1.49999999999999994449e-01  3.65636754310777134513e-01  1.64927526329133877780e-03
7.50000000000000000000e-01  1.49999999999999994449e-01  3.19474824568219240017e-01  1.54493639188379994209e-03
8.00000000000000044409e-01  1.49999999999999994449e-01  2.65466978623706939544e-01  1.38194180408857114628e-03
8.49999999999999977796e-01  1.49999999999999994449e-01  2.04952095498422970365e-01  1.15527835534048883837e-03
9.00000000000000022204e-01  1.49999999999999994449e-01  1.39433109297971924434e-01  8.57670406323202128007e-04
9.49999999999999955591e-01  1.49999999999999994449e-01  7.05417082975102610609e-02  4.78052662592862165347e-04
1.00000000000000000000e+00  1.49999999999999994449e-01  0.00000000000000000000e+00  5.55978012349343173502e-17
0.00000000000000000000e+00  2.00000000000000011102e-01  0.00000000000000000000e+00  0.00000000000000000000e+00
5.00000000000000027756e-02  2.00000000000000011102e-01  9.18735154691351502132e-02  7.63560317750267003589e-05
1.00000000000000005551e-01  2.00000000000000011102e-01  1.81401893404452840830e-01  2.33738596887356209209e-04
1.49999999999999994449e-01  2.00000000000000011102e-01  2.66402259891243498036e-01  4.46660536551957143558e-04
2.00000000000000011102e-01  2.00000000000000011102e-01  3.44798333668555001541e-01  6.93169143971272827542e-04
2.50000000000000000000e-01  2.00000000000000011102e-01  4.14672254874436874150e-01  9.54682903016534911700e-04
2.99999999999999988898e-01  2.00000000000000011102e-01  4.74312763084756838783e-01  1.21549506281998231927e-03
3.49999999999999977796e-01  2.00000000000000011102e-01  5.22258208304185678195e-01  1.46228631011369181181e-03
4.00000000000000022204e-01  2.00000000000000011102e-01  5.57333248096483324652e-01  1.68374627846412661114e-03
4.50000000000000011102e-01  2.00000000000000011102e-01  5.78678338321396590338e-01  1.87030214165062602660e-03
5.00000000000000000000e-01  2.00000000000000011102e-01  5.85771330920010324661e-01  2.01392137246281244245e-03
5.50000000000000044409e-01  2.00000000000000011102e-01  5.78440689287784470807e-01  2.10795117526263453556e-03
5.99999999999999977796e-01  2.00000000000000011102e-01  5.56870034564238891583e-01  2.14695981070855967943e-03
6.50000000000000022204e-01  2.00000000000000011102e-01  5.21593946760280369190e-01  2.12654785401900081609e-03
6.99999999999999955591e-01  2.00000000000000011102e-01  4.73485159979083025661e-01  2.04309816849379544124e-03
7.50000000000000000000e-01  2.00000000000000011102e-01  4.13733505761980813187e-01  1.89343201547265138629e-03
8.00000000000000044409e-01  2.00000000000000011102e-01  3.43817165392477697150e-01  1.67433742004868824083e-03
8.49999999999999977796e-01  2.00000000000000011102e-01  2.65466978623706717499e-01  1.38194180408879319089e-03
9.00000000000000022204e-01  2.00000000000000011102e-01  1.80624698739376005063e-01  1.01093326196427524266e-03
9.49999999999999955591e-01  2.00000000000000011102e-01  9.13961341076168221065e-02  5.53737393293410318229e-04
1.00000000000000000000e+00  2.00000000000000011102e-01  0.00000000000000000000e+00  7.19829327805996632341e-17
0.00000000000000000000e+00  2.50000000000000000000e-01  0.00000000000000000000e+00  0.00000000000000000000e+00
5.00000000000000027756e-02  2.50000000000000000000e-01  1.10460507520660763947e-01  1.55363520576379254834e-04
1.00000000000000005551e-01  2.50000000000000000000e-01  2.18126594961662090277e-01  3.81417262748401375561e-04
1.49999999999999994449e-01  2.50000000000000000000e-01  3.20364885243538177750e-01  6.54875716564862209168e-04
2.00000000000000011102e-01  2.50000000000000000000e-01  4.14672254874436929661e-01  9.54682903016479400549e-04
2.50000000000000000000e-01  2.50000000000000000000e-01  4.98737755928351067514e-01  1.26224407164882146404e-03
2.99999999999999988898e-01  2.50000000000000000000e-01  5.70500050908077538381e-01  1.56135190960671188520e-03
3.49999999999999977796e-01  2.50000000000000000000e-01  6.28198747145362612621e-01  1.83800818968782309071e-03
4.00000000000000022204e-01  2.50000000000000000000e-01  6.70418271670874199586e-01  2.08024029308306879216e-03
4.50000000000000011102e-01  2.50000000000000000000e-01  6.96123179142471348868e-01  2.27794419123894531509e-03
5.00000000000000000000e-01  2.50000000000000000000e-01  7.04684029928854704927e-01  2.42275125769275678778e-03
5.50000000000000044409e-01  2.50000000000000000000e-01  6.95893221186178467796e-01  2.50790214753171536444e-03
5.99999999999999977796e-01  2.50000000000000000000e-01  6.69970405515058820001e-01  2.52810644889844837735e-03
6.50000000000000022204e-01  2.50000000000000000000e-01  6.27557389170558921343e-01  2.47936616449151436825e-03
6.99999999999999955591e-01  2.50000000000000000000e-01  5.69702660846057695743e-01  2.35874197162655452331e-03
7.50000000000000000000e-01  2.50000000000000000000e-01  4.97835956384763578253e-01  2.16404361523642174703e-03
8.00000000000000044409e-01  2.50000000000000000000e-01  4.13733505761980591142e-01  1.89343201547287343089e-03
8.49999999999999977796e-01  2.50000000000000000000e-01  3.19474824568218962462e-01  1.54493639188413300900e-03
9.00000000000000022204e-01  2.50000000000000000000e-01  2.17392086863618161363e-01  1.11592536079241355651e-03
9.49999999999999955591e-01  2.50000000000000000000e-01  1.10013230967968334006e-01  6.02640073268878584400e-04
1.00000000000000000000e+00  2.50000000000000000000e-01  0.00000000000000000000e+00  8.65956056235493162558e-17
0.00000000000000000000e+00  2.99999999999999988898e-01  0.00000000000000000000e+00  0.00000000000000000000e+00
5.00000000000000027756e-02  2.99999999999999988898e-01  1.26318896342252101617e-01  2.39244381248282511621e-04
1.00000000000000005551e-01  2.99999999999999988898e-01  2.49464444946009888948e-01  5.35555053990083296256e-04
1.49999999999999994449e-01  2.99999999999999988898e-01  3.66418449635971088529e-01  8.67579938097384761875e-04
2.00000000000000011102e-01  2.99999999999999988898e-01  4.74312763084757005316e-01  1.21549506281981578582e-03
2.50000000000000000000e-01  2.99999999999999988898e-01  5.70500050908077427358e-01  1.56135190960682290751e-03
2.99999999999999988898e-01  2.99999999999999988898e-01  6.52619286280731958350e-01  1.88921090674176728186e-03
3.49999999999999977796e-01  2.99999999999999988898e-01  7.18654262076440453200e-01  2.18515809090180646024e-03
4.00000000000000022204e-01  2.99999999999999988898e-01  7.66983613509028216981e-01  2.43727078478517267257e-03
4.50000000000000011102e-01  2.99999999999999988898e-01  7.96421088761094631003e-01  2.63556392636310476973e-03
5.00000000000000000000e-01  2.99999999999999988898e-01  8.06245069408639269959e-01  2.77192496630818130399e-03
5.50000000000000044409e-01  2.99999999999999988898e-01  7.96216620673366182181e-01  2.84003201409144256928e-03
5.99999999999999977796e-01  2.99999999999999988898e-01  7.66585640474821472523e-01  2.83524381899191713075e-03
6.50000000000000022204e-01  2.99999999999999988898e-01  7.18084971799161864148e-01  2.75444836818039551218e-03
6.99999999999999955591e-01  2.99999999999999988898e-01  6.51912639284465189604e-01  2.59585790300853602730e-03
7.50000000000000000000e-01  2.99999999999999988898e-01  5.69702660846057473698e-01  2.35874197162688759022e-03
8.00000000000000044409e-01  2.99999999999999988898e-01  4.73485159979082748105e-01  2.04309816849412850814e-03
8.49999999999999977796e-01  2.99999999999999988898e-01  3.65636754310776468380e-01  1.64927526329211593392e-03
9.00000000000000022204e-01  2.99999999999999988898e-01  2.48822411210547045357e-01  1.17758878945301015406e-03
9.49999999999999955591e-01  2.99999999999999988898e-01  1.25930135906276746693e-01  6.28004817223720701591e-04
1.00000000000000000000e+00  2.99999999999999988898e-01  0.00000000000000000000e+00  9.90760072617091597716e-17
0.00000000000000000000e+00  3.49999999999999977796e-01  0.00000000000000000000e+00  0.00000000000000000000e+00
5.00000000000000027756e-02  3.49999999999999977796e-01  1.39061097040631548305e-01  3.23031918131294615293e-04
1.00000000000000005551e-01  3.49999999999999977796e-01  2.74648940251041584482e-01  6.87217822116670262744e-04
1.49999999999999994449e-01  3.49999999999999977796e-01  4.03435416318789541457e-01  1.07308086868407315251e-03
2.00000000000000011102e-01  3.49999999999999977796e-01  5.22258208304185678195e-01  1.46228631011369181181e-03
2.50000000000000000000e-01  3.49999999999999977796e-01  6.28198747145362945687e-01  1.83800818968749002380e-03
2.99999999999999988898e-01  3.49999999999999977796e-01  7.18654262076440897289e-01  2.18515809090136237103e-03
3.49999999999999977796e-01  3.49999999999999977796e-01  7.91402109958729282901e-01  2.49051618750717462802e-03
4.00000000000000022204e-01  3.49999999999999977796e-01  8.44654760622312483775e-01  2.74280026853002123488e-03
4.50000000000000011102e-01  3.49999999999999977796e-01  8.77104061055839046013e-01  2.93269427921138969850e-03
5.00000000000000000000e-01  3.49999999999999977796e-01  8.87953679505605997235e-01  3.05284468276179055124e-03
5.50000000000000044409e-01  3.49999999999999977796e-01  8.76938931416638589589e-01  3.09782391841173510016e-03
5.99999999999999977796e-01  3.49999999999999977796e-01  8.44333505501817960237e-01  3.06405538902465579554e-03
6.50000000000000022204e-01  3.49999999999999977796e-01  7.90942933274395243437e-01  2.94969287184132511470e-03
6.99999999999999955591e-01  3.49999999999999977796e-01  7.18084971799161753125e-01  2.75444836818050653449e-03
7.50000000000000000000e-01  3.49999999999999977796e-01  6.27557389170558699298e-01  2.47936616449173641286e-03
8.00000000000000044409e-01  3.49999999999999977796e-01  5.21593946760280036123e-01  2.12654785401944490530e-03
8.49999999999999977796e-01  3.49999999999999977796e-01  4.02809653089849728502e-01  1.69884409762399712918e-03
9.00000000000000022204e-01  3.49999999999999977796e-01  2.74136614118954125008e-01  1.19954395420424075880e-03
9.49999999999999955591e-01  3.49999999999999977796e-01  1.38752020627297051325e-01  6.32108331465874861976e-04
1.00000000000000000000e+00  3.49999999999999977796e-01  0.00000000000000000000e+00  1.09116828786669339010e-16
0.00000000000000000000e+00  4.00000000000000022204e-01  0.00000000000000000000e+00  0.00000000000000000000e+00
5.00000000000000027756e-02  4.00000000000000022204e-01  1.48375372402104160896e-01  4.02644947553792986739e-04
1.00000000000000005551e-01  4.00000000000000022204e-01  2.93063626618229267073e-01  8.28999528007245967132e-04
1.49999999999999994449e-01  4.00000000000000022204e-01  4.30509061485330302155e-01  1.26156162805884930478e-03
2.00000000000000011102e-01  4.00000000000000022204e-01  5.57333248096483768741e-01  1.68374627846368252193e-03
2.50000000000000000000e-01  4.00000000000000022204e-01  6.70418271670874310608e-01  2.08024029308295776985e-03
2.99999999999999988898e-01  4.00000000000000022204e-01  7.66983613509028105959e-01  2.43727078478528369487e-03
3.49999999999999977796e-01  4.00000000000000022204e-01  8.44654760622312150709e-01  2.74280026853035430179e-03
4.00000000000000022204e-01  4.00000000000000022204e-01  9.01521833415492857000e-01  2.98666377198075760901e-03
4.50000000000000011102e-01  4.00000000000000022204e-01  9.36186773550982453962e-01  3.16065884077032510646e-03
5.00000000000000000000e-01  4.00000000000000022204e-01  9.47797923063839031776e-01  3.25859323131449940547e-03
5.50000000000000044409e-01  4.00000000000000022204e-01  9.36071142149899060314e-01  3.27629024185360773203e-03
5.99999999999999977796e-01  4.00000000000000022204e-01  9.01296948306260281569e-01  3.21154888121344406215e-03
6.50000000000000022204e-01  4.00000000000000022204e-01  8.44333505501818515349e-01  3.06405538902410068403e-03
6.99999999999999955591e-01  4.00000000000000022204e-01  7.66585640474821805590e-01  2.83524381899158406384e-03
7.50000000000000000000e-01  4.00000000000000022204e-01  6.69970405515058375912e-01  2.52810644889900348886e-03
8.00000000000000044409e-01  4.00000000000000022204e-01  5.56870034564238669539e-01  2.14695981070889274633e-03
8.49999999999999977796e-01  4.00000000000000022204e-01  4.30073444002383786788e-01  1.69717911100547569347e-03
9.00000000000000022204e-01  4.00000000000000022204e-01  2.92707704301781113099e-01  1.18492184445551096417e-03
9.49999999999999955591e-01  4.00000000000000022204e-01  1.48161149719363227639e-01  6.16867630294837265836e-04
1.00000000000000000000e+00  4.00000000000000022204e-01  0.00000000000000000000e+00  1.16470831848909234536e-16
0.00000000000000000000e+00  4.50000000000000011102e-01  0.00000000000000000000e+00  0.00000000000000000000e+00
5.00000000000000027756e-02  4.50000000000000011102e-01  1.54033873411800248387e-01  4.74623775673477243942e-04
1.00000000000000005551e-01  4.50000000000000011102e-01  3.04257846161796241535e-01  9.54636228092553551505e-04
1.49999999999999994449e-01  4.50000000000000011102e-01  4.46976409206752522962e-01  1.42471412695771570966e-03
2.00000000000000011102e-01  4.50000000000000011102e-01  5.78678338321396368293e-01  1.87030214165084807121e-03
2.50000000000000000000e-01  4.50000000000000011102e-01  6.96123179142471348868e-01  2.27794419123894531509e-03
2.99999999999999988898e-01  4.50000000000000011102e-01  7.96421088761094742026e-01  2.63556392636299374743e-03
3.49999999999999977796e-01  4.50000000000000011102e-01  8.77104061055839157035e-01  2.93269427921127867620e-03
4.00000000000000022204e-01  4.50000000000000011102e-01  9.36186773550982120895e-01  3.16065884077065817337e-03
4.50000000000000011102e-01  4.50000000000000011102e-01  9.72215550969531827619e-01  3.31270717804499348347e-03
5.00000000000000000000e-01  4.50000000000000011102e-01  9.84304236195275183974e-01  3.38410439986258637646e-03
5.50000000000000044409e-01  4.50000000000000011102e-01  9.72156084407420739701e-01  3.37217374015597037840e-03
5.99999999999999977796e-01  4.50000000000000011102e-01  9.36071142149899171336e-01  3.27629024185371875433e-03
6.50000000000000022204e-01  4.50000000000000011102e-01  8.76938931416639144700e-01  3.09782391841140203326e-03
6.99999999999999955591e-01  4.50000000000000011102e-01  7.96216620673366737293e-01  2.84003201409099848007e-03
7.50000000000000000000e-01  4.50000000000000011102e-01  6.95893221186178689841e-01  2.50790214753171536444e-03
8.00000000000000044409e-01  4.50000000000000011102e-01  5.78440689287783915695e-01  2.10795117526341169167e-03
8.49999999999999977796e-01  4.50000000000000011102e-01  4.46753134965340192863e-01  1.64798836837015683088e-03
9.00000000000000022204e-01  4.50000000000000011102e-01  3.04075627077388777053e-01  1.13685531250012905602e-03
9.49999999999999955591e-01  4.50000000000000011102e-01  1.53924339840282337066e-01  5.84157347191499587424e-04
1.00000000000000000000e+00  4.50000000000000011102e-01  0.00000000000000000000e+00  1.20956936486499618490e-16
0.00000000000000000000e+00  5.00000000000000000000e-01  0.00000000000000000000e+00  0.00000000000000000000e+00
5.00000000000000027756e-02  5.00000000000000000000e-01  1.55898475558858995438e-01  5.35989481371873521809e-04
1.00000000000000005551e-01  5.00000000000000000000e-01  3.07958213252082058098e-01  1.05878112286533765385e-03
1.49999999999999994449e-01  5.00000000000000000000e-01  4.52434997680326189684e-01  1.55550205922055928554e-03
2.00000000000000011102e-01  5.00000000000000000000e-01  5.85771330920010324661e-01  2.01392137246281244245e-03
2.50000000000000000000e-01  5.00000000000000000000e-01  7.04684029928854593905e-01  2.42275125769286781008e-03
2.99999999999999988898e-01  5.00000000000000000000e-01  8.06245069408638936892e-01  2.77192496630851437089e-03
3.49999999999999977796e-01  5.00000000000000000000e-01  8.87953679505606219280e-01  3.05284468276156850663e-03
4.00000000000000022204e-01  5.00000000000000000000e-01  9.47797923063839031776e-01  3.25859323131449940547e-03
4.50000000000000011102e-01  5.00000000000000000000e-01  9.84304236195275183974e-01  3.38410439986258637646e-03
5.00000000000000000000e-01  5.00000000000000000000e-01  9.96573712313113646566e-01  3.42628768688635343409e-03
5.50000000000000044409e-01  5.00000000000000000000e-01  9.84304236195275628063e-01  3.38410439986203126495e-03
5.99999999999999977796e-01  5.00000000000000000000e-01  9.47797923063838809732e-01  3.25859323131483247238e-03
6.50000000000000022204e-01  5.00000000000000000000e-01  8.87953679505605997235e-01  3.05284468276190157354e-03
6.99999999999999955591e-01  5.00000000000000000000e-01  8.06245069408639269959e-01  2.77192496630818130399e-03
7.50000000000000000000e-01  5.00000000000000000000e-01  7.04684029928854593905e-01  2.42275125769297883238e-03
8.00000000000000044409e-01  5.00000000000000000000e-01  5.85771330920010324661e-01  2.01392137246292346475e-03
8.49999999999999977796e-01  5.00000000000000000000e-01  4.52434997680326300706e-01  1.55550205922055928554e-03
9.00000000000000022204e-01  5.00000000000000000000e-01  3.07958213252081669520e-01  1.05878112286583725421e-03
9.49999999999999955591e-01  5.00000000000000000000e-01  1.55898475558859606060e-01  5.35989481371373921448e-04
1.00000000000000000000e+00  5.00000000000000000000e-01  0.00000000000000000000e+00  1.22464679914735320717e-16
0.00000000000000000000e+00  5.50000000000000044409e-01  0.00000000000000000000e+00  0.00000000000000000000e+00
5.00000000000000027756e-02  5.50000000000000044409e-01  1.53924339840282003999e-01  5.84157347191693876454e-04
1.00000000000000005551e-01  5.50000000000000044409e-01  3.04075627077389054609e-01  1.13685531249974047796e-03
1.49999999999999994449e-01  5.50000000000000044409e-01  4.46753134965340192863e-01  1.64798836836999029742e-03
2.00000000000000011102e-01  5.50000000000000044409e-01  5.78440689287784470807e-01  2.10795117526263453556e-03
2.50000000000000000000e-01  5.50000000000000044409e-01  6.95893221186178467796e-01  2.50790214753171536444e-03
2.99999999999999988898e-01  5.50000000000000044409e-01  7.96216620673366182181e-01  2.84003201409144256928e-03
3.49999999999999977796e-01  5.50000000000000044409e-01  8.76938931416639033678e-01  3.09782391841129101095e-03
4.00000000000000022204e-01  5.50000000000000044409e-01  9.36071142149899282359e-01  3.27629024185338568742e-03
4.50000000000000011102e-01  5.50000000000000044409e-01  9.72156084407421072768e-01  3.37217374015563731149e-03
5.00000000000000000000e-01  5.50000000000000044409e-01  9.84304236195275517041e-01  3.38410439986214228725e-03
5.50000000000000044409e-01  5.50000000000000044409e-01  9.72215550969532271708e-01  3.31270717804432734965e-03
5.99999999999999977796e-01  5.50000000000000044409e-01  9.36186773550982898051e-01  3.16065884076988101725e-03
6.50000000000000022204e-01  5.50000000000000044409e-01  8.77104061055838934990e-01  2.93269427921150072081e-03
6.99999999999999955591e-01  5.50000000000000044409e-01  7.96421088761095075093e-01  2.63556392636254965822e-03
7.50000000000000000000e-01  5.50000000000000044409e-01  6.96123179142472015002e-01  2.27794419123827918128e-03
8.00000000000000044409e-01  5.50000000000000044409e-01  5.78678338321397811583e-01  1.87030214164940478128e-03
8.49999999999999977796e-01  5.50000000000000044409e-01  4.46976409206753411141e-01  1.42471412695688304240e-03
9.00000000000000022204e-01  5.50000000000000044409e-01  3.04257846161795963980e-01  9.54636228092942129564e-04
9.49999999999999955591e-01  5.50000000000000044409e-01  1.54033873411801108810e-01  4.74623775672700087824e-04
1.00000000000000000000e+00  5.50000000000000044409e-01  0.00000000000000000000e+00  1.20956936486499618490e-16
0.00000000000000000000e+00  5.99999999999999977796e-01  0.00000000000000000000e+00  0.00000000000000000000e+00
5.00000000000000027756e-02  5.99999999999999977796e-01  1.48161149719363088861e-01  6.16867630294892776988e-04
1.00000000000000005551e-01  5.99999999999999977796e-01  2.92707704301781446166e-01  1.18492184445512238611e-03
1.49999999999999994449e-01  5.99999999999999977796e-01  4.30073444002383786788e-01  1.69717911100542018232e-03
2.00000000000000011102e-01  5.99999999999999977796e-01  5.56870034564238780561e-01  2.14695981070867070173e-03
2.50000000000000000000e-01  5.99999999999999977796e-01  6.69970405515058597956e-01  2.52810644889867042195e-03
2.99999999999999988898e-01  5.99999999999999977796e-01  7.66585640474821250478e-01  2.83524381899213917535e-03
3.49999999999999977796e-01  5.99999999999999977796e-01  8.44333505501818515349e-01  3.06405538902410068403e-03
4.00000000000000022204e-01  5.99999999999999977796e-01  9.01296948306260392592e-01  3.21154888121333303985e-03
4.50000000000000011102e-01  5.99999999999999977796e-01  9.36071142149899615426e-01  3.27629024185327466512e-03
5.00000000000000000000e-01  5.99999999999999977796e-01  9.47797923063839031776e-01  3.25859323131461042777e-03
5.50000000000000044409e-01  5.99999999999999977796e-01  9.36186773550982564984e-01  3.16065884077021408416e-03
5.99999999999999977796e-01  5.99999999999999977796e-01  9.01521833415492968022e-01  2.98666377198086863132e-03
6.50000000000000022204e-01  5.99999999999999977796e-01  8.44654760622312372753e-01  2.74280026853035430179e-03
6.99999999999999955591e-01  5.99999999999999977796e-01  7.66983613509029327204e-01  2.43727078478406244955e-03
7.50000000000000000000e-01  5.99999999999999977796e-01  6.70418271670874865720e-01  2.08024029308251368064e-03
8.00000000000000044409e-01  5.99999999999999977796e-01  5.57333248096483879763e-01  1.68374627846368252193e-03